#Lammps data file

 1876 atoms
    2 atom types

  0.0000  53.2642 xlo xhi
  0.0000  46.1281 ylo yhi
-10.0000  13.3500 zlo zhi
 26.6321   0.0000   0.0000 xy xz yz 

Masses

 1 12
 2 12

Atoms

    1 1   0.000    0.000    3.350
    2 1   2.101    1.279    3.350
    3 1   4.145    5.016    3.350
    4 1   6.190    8.754    3.350
    5 1   8.234   12.491    3.350
    6 1  10.278   16.228    3.350
    7 1  12.322   19.966    3.350
    8 1  14.367   23.703    3.350
    9 1  16.411   27.441    3.350
   10 1  18.455   31.178    3.350
   11 1  20.499   34.916    3.350
   12 1  22.544   38.653    3.350
   13 1  24.588   42.391    3.350
   14 1   4.259    0.098    3.350
   15 1   4.202    2.557    3.350
   16 1   6.303    3.836    3.350
   17 1   6.246    6.295    3.350
   18 1   8.347    7.573    3.350
   19 1   8.291   10.032    3.350
   20 1  10.392   11.311    3.350
   21 1  10.335   13.770    3.350
   22 1  12.436   15.048    3.350
   23 1  12.379   17.507    3.350
   24 1  14.480   18.786    3.350
   25 1  14.423   21.245    3.350
   26 1  16.524   22.523    3.350
   27 1  16.468   24.982    3.350
   28 1  18.569   26.261    3.350
   29 1  18.512   28.719    3.350
   30 1  20.613   29.998    3.350
   31 1  20.556   32.457    3.350
   32 1  22.657   33.736    3.350
   33 1  22.600   36.194    3.350
   34 1  24.701   37.473    3.350
   35 1  24.645   39.932    3.350
   36 1  26.746   41.210    3.350
   37 1  26.689   43.669    3.350
   38 1  28.790   44.948    3.350
   39 1   6.360    1.377    3.350
   40 1   8.461    2.656    3.350
   41 1   8.404    5.114    3.350
   42 1  10.505    6.393    3.350
   43 1  10.448    8.852    3.350
   44 1  12.549   10.130    3.350
   45 1  12.493   12.589    3.350
   46 1  14.594   13.868    3.350
   47 1  14.537   16.327    3.350
   48 1  16.638   17.605    3.350
   49 1  16.581   20.064    3.350
   50 1  18.682   21.343    3.350
   51 1  18.625   23.802    3.350
   52 1  20.726   25.080    3.350
   53 1  20.670   27.539    3.350
   54 1  22.771   28.818    3.350
   55 1  22.714   31.277    3.350
   56 1  24.815   32.555    3.350
   57 1  24.758   35.014    3.350
   58 1  26.859   36.293    3.350
   59 1  26.802   38.752    3.350
   60 1  28.903   40.030    3.350
   61 1  28.847   42.489    3.350
   62 1  30.948   43.768    3.350
   63 1   8.518    0.197    3.350
   64 1  10.619    1.475    3.350
   65 1  10.562    3.934    3.350
   66 1  12.663    5.213    3.350
   67 1  12.606    7.672    3.350
   68 1  14.707    8.950    3.350
   69 1  14.650   11.409    3.350
   70 1  16.752   12.688    3.350
   71 1  16.695   15.147    3.350
   72 1  18.796   16.425    3.350
   73 1  18.739   18.884    3.350
   74 1  20.840   20.163    3.350
   75 1  20.783   22.621    3.350
   76 1  22.884   23.900    3.350
   77 1  22.828   26.359    3.350
   78 1  24.929   27.638    3.350
   79 1  24.872   30.096    3.350
   80 1  26.973   31.375    3.350
   81 1  26.916   33.834    3.350
   82 1  29.017   35.112    3.350
   83 1  28.960   37.571    3.350
   84 1  31.061   38.850    3.350
   85 1  31.005   41.309    3.350
   86 1  33.106   42.587    3.350
   87 1  33.049   45.046    3.350
   88 1  12.777    0.295    3.350
   89 1  12.720    2.754    3.350
   90 1  14.821    4.033    3.350
   91 1  14.764    6.491    3.350
   92 1  16.865    7.770    3.350
   93 1  16.808   10.229    3.350
   94 1  18.909   11.507    3.350
   95 1  18.853   13.966    3.350
   96 1  20.954   15.245    3.350
   97 1  20.897   17.704    3.350
   98 1  22.998   18.982    3.350
   99 1  22.941   21.441    3.350
  100 1  25.042   22.720    3.350
  101 1  24.985   25.179    3.350
  102 1  27.086   26.457    3.350
  103 1  27.030   28.916    3.350
  104 1  29.131   30.195    3.350
  105 1  29.074   32.654    3.350
  106 1  31.175   33.932    3.350
  107 1  31.118   36.391    3.350
  108 1  33.219   37.670    3.350
  109 1  33.162   40.129    3.350
  110 1  35.263   41.407    3.350
  111 1  35.207   43.866    3.350
  112 1  37.308   45.145    3.350
  113 1  14.878    1.574    3.350
  114 1  16.979    2.852    3.350
  115 1  16.922    5.311    3.350
  116 1  19.023    6.590    3.350
  117 1  18.966    9.049    3.350
  118 1  21.067   10.327    3.350
  119 1  21.010   12.786    3.350
  120 1  23.111   14.065    3.350
  121 1  23.055   16.524    3.350
  122 1  25.156   17.802    3.350
  123 1  25.099   20.261    3.350
  124 1  27.200   21.540    3.350
  125 1  27.143   23.998    3.350
  126 1  29.244   25.277    3.350
  127 1  29.187   27.736    3.350
  128 1  31.288   29.015    3.350
  129 1  31.232   31.473    3.350
  130 1  33.333   32.752    3.350
  131 1  33.276   35.211    3.350
  132 1  35.377   36.489    3.350
  133 1  35.320   38.948    3.350
  134 1  37.421   40.227    3.350
  135 1  37.364   42.686    3.350
  136 1  39.465   43.964    3.350
  137 1  17.035    0.393    3.350
  138 1  19.136    1.672    3.350
  139 1  19.080    4.131    3.350
  140 1  21.181    5.409    3.350
  141 1  21.124    7.868    3.350
  142 1  23.225    9.147    3.350
  143 1  23.168   11.606    3.350
  144 1  25.269   12.884    3.350
  145 1  25.212   15.343    3.350
  146 1  27.314   16.622    3.350
  147 1  27.257   19.081    3.350
  148 1  29.358   20.359    3.350
  149 1  29.301   22.818    3.350
  150 1  31.402   24.097    3.350
  151 1  31.345   26.556    3.350
  152 1  33.446   27.834    3.350
  153 1  33.389   30.293    3.350
  154 1  35.491   31.572    3.350
  155 1  35.434   34.031    3.350
  156 1  37.535   35.309    3.350
  157 1  37.478   37.768    3.350
  158 1  39.579   39.047    3.350
  159 1  39.522   41.505    3.350
  160 1  41.623   42.784    3.350
  161 1  41.567   45.243    3.350
  162 1  21.294    0.492    3.350
  163 1  21.238    2.951    3.350
  164 1  23.339    4.229    3.350
  165 1  23.282    6.688    3.350
  166 1  25.383    7.967    3.350
  167 1  25.326   10.426    3.350
  168 1  27.427   11.704    3.350
  169 1  27.370   14.163    3.350
  170 1  29.471   15.442    3.350
  171 1  29.415   17.900    3.350
  172 1  31.516   19.179    3.350
  173 1  31.459   21.638    3.350
  174 1  33.560   22.917    3.350
  175 1  33.503   25.375    3.350
  176 1  35.604   26.654    3.350
  177 1  35.547   29.113    3.350
  178 1  37.648   30.391    3.350
  179 1  37.592   32.850    3.350
  180 1  39.693   34.129    3.350
  181 1  39.636   36.588    3.350
  182 1  41.737   37.866    3.350
  183 1  41.680   40.325    3.350
  184 1  43.781   41.604    3.350
  185 1  43.724   44.063    3.350
  186 1  45.825   45.341    3.350
  187 1  23.395    1.770    3.350
  188 1  25.496    3.049    3.350
  189 1  25.440    5.508    3.350
  190 1  27.541    6.786    3.350
  191 1  27.484    9.245    3.350
  192 1  29.585   10.524    3.350
  193 1  29.528   12.983    3.350
  194 1  31.629   14.261    3.350
  195 1  31.572   16.720    3.350
  196 1  33.673   17.999    3.350
  197 1  33.617   20.458    3.350
  198 1  35.718   21.736    3.350
  199 1  35.661   24.195    3.350
  200 1  37.762   25.474    3.350
  201 1  37.705   27.933    3.350
  202 1  39.806   29.211    3.350
  203 1  39.749   31.670    3.350
  204 1  41.850   32.949    3.350
  205 1  41.794   35.408    3.350
  206 1  43.895   36.686    3.350
  207 1  43.838   39.145    3.350
  208 1  45.939   40.424    3.350
  209 1  45.882   42.882    3.350
  210 1  47.983   44.161    3.350
  211 1  25.553    0.590    3.350
  212 1  27.654    1.869    3.350
  213 1  27.597    4.328    3.350
  214 1  29.698    5.606    3.350
  215 1  29.642    8.065    3.350
  216 1  31.743    9.344    3.350
  217 1  31.686   11.803    3.350
  218 1  33.787   13.081    3.350
  219 1  33.730   15.540    3.350
  220 1  35.831   16.819    3.350
  221 1  35.774   19.277    3.350
  222 1  37.876   20.556    3.350
  223 1  37.819   23.015    3.350
  224 1  39.920   24.294    3.350
  225 1  39.863   26.752    3.350
  226 1  41.964   28.031    3.350
  227 1  41.907   30.490    3.350
  228 1  44.008   31.768    3.350
  229 1  43.951   34.227    3.350
  230 1  46.053   35.506    3.350
  231 1  45.996   37.965    3.350
  232 1  48.097   39.243    3.350
  233 1  48.040   41.702    3.350
  234 1  50.141   42.981    3.350
  235 1  50.084   45.440    3.350
  236 1  29.812    0.688    3.350
  237 1  29.755    3.147    3.350
  238 1  31.856    4.426    3.350
  239 1  31.800    6.885    3.350
  240 1  33.901    8.163    3.350
  241 1  33.844   10.622    3.350
  242 1  35.945   11.901    3.350
  243 1  35.888   14.360    3.350
  244 1  37.989   15.638    3.350
  245 1  37.932   18.097    3.350
  246 1  40.033   19.376    3.350
  247 1  39.977   21.835    3.350
  248 1  42.078   23.113    3.350
  249 1  42.021   25.572    3.350
  250 1  44.122   26.851    3.350
  251 1  44.065   29.310    3.350
  252 1  46.166   30.588    3.350
  253 1  46.109   33.047    3.350
  254 1  48.210   34.326    3.350
  255 1  48.154   36.784    3.350
  256 1  50.255   38.063    3.350
  257 1  50.198   40.522    3.350
  258 1  52.299   41.801    3.350
  259 1  52.242   44.259    3.350
  260 1  54.343   45.538    3.350
  261 1  31.913    1.967    3.350
  262 1  34.014    3.246    3.350
  263 1  33.957    5.705    3.350
  264 1  36.058    6.983    3.350
  265 1  36.002    9.442    3.350
  266 1  38.103   10.721    3.350
  267 1  38.046   13.179    3.350
  268 1  40.147   14.458    3.350
  269 1  40.090   16.917    3.350
  270 1  42.191   18.196    3.350
  271 1  42.134   20.654    3.350
  272 1  44.235   21.933    3.350
  273 1  44.179   24.392    3.350
  274 1  46.280   25.670    3.350
  275 1  46.223   28.129    3.350
  276 1  48.324   29.408    3.350
  277 1  48.267   31.867    3.350
  278 1  50.368   33.145    3.350
  279 1  50.311   35.604    3.350
  280 1  52.412   36.883    3.350
  281 1  52.356   39.342    3.350
  282 1  54.457   40.620    3.350
  283 1  54.400   43.079    3.350
  284 1  56.501   44.358    3.350
  285 1  34.071    0.787    3.350
  286 1  36.172    2.065    3.350
  287 1  36.115    4.524    3.350
  288 1  38.216    5.803    3.350
  289 1  38.159    8.262    3.350
  290 1  40.260    9.540    3.350
  291 1  40.204   11.999    3.350
  292 1  42.305   13.278    3.350
  293 1  42.248   15.737    3.350
  294 1  44.349   17.015    3.350
  295 1  44.292   19.474    3.350
  296 1  46.393   20.753    3.350
  297 1  46.336   23.212    3.350
  298 1  48.437   24.490    3.350
  299 1  48.381   26.949    3.350
  300 1  50.482   28.228    3.350
  301 1  50.425   30.687    3.350
  302 1  52.526   31.965    3.350
  303 1  52.469   34.424    3.350
  304 1  54.570   35.703    3.350
  305 1  54.513   38.161    3.350
  306 1  56.615   39.440    3.350
  307 1  56.558   41.899    3.350
  308 1  58.659   43.178    3.350
  309 1  58.602   45.636    3.350
  310 1  38.330    0.885    3.350
  311 1  38.273    3.344    3.350
  312 1  40.374    4.623    3.350
  313 1  40.317    7.082    3.350
  314 1  42.418    8.360    3.350
  315 1  42.362   10.819    3.350
  316 1  44.463   12.098    3.350
  317 1  44.406   14.556    3.350
  318 1  46.507   15.835    3.350
  319 1  46.450   18.294    3.350
  320 1  48.551   19.572    3.350
  321 1  48.494   22.031    3.350
  322 1  50.595   23.310    3.350
  323 1  50.539   25.769    3.350
  324 1  52.640   27.047    3.350
  325 1  52.583   29.506    3.350
  326 1  54.684   30.785    3.350
  327 1  54.627   33.244    3.350
  328 1  56.728   34.522    3.350
  329 1  56.671   36.981    3.350
  330 1  58.772   38.260    3.350
  331 1  58.716   40.719    3.350
  332 1  60.817   41.997    3.350
  333 1  60.760   44.456    3.350
  334 1  62.861   45.735    3.350
  335 1  40.431    2.164    3.350
  336 1  42.532    3.442    3.350
  337 1  42.475    5.901    3.350
  338 1  44.576    7.180    3.350
  339 1  44.519    9.639    3.350
  340 1  46.620   10.917    3.350
  341 1  46.564   13.376    3.350
  342 1  48.665   14.655    3.350
  343 1  48.608   17.114    3.350
  344 1  50.709   18.392    3.350
  345 1  50.652   20.851    3.350
  346 1  52.753   22.130    3.350
  347 1  52.696   24.589    3.350
  348 1  54.797   25.867    3.350
  349 1  54.741   28.326    3.350
  350 1  56.842   29.605    3.350
  351 1  56.785   32.063    3.350
  352 1  58.886   33.342    3.350
  353 1  58.829   35.801    3.350
  354 1  60.930   37.080    3.350
  355 1  60.873   39.538    3.350
  356 1  62.974   40.817    3.350
  357 1  62.918   43.276    3.350
  358 1  65.019   44.554    3.350
  359 1  42.589    0.984    3.350
  360 1  44.690    2.262    3.350
  361 1  44.633    4.721    3.350
  362 1  46.734    6.000    3.350
  363 1  46.677    8.458    3.350
  364 1  48.778    9.737    3.350
  365 1  48.721   12.196    3.350
  366 1  50.822   13.475    3.350
  367 1  50.766   15.933    3.350
  368 1  52.867   17.212    3.350
  369 1  52.810   19.671    3.350
  370 1  54.911   20.949    3.350
  371 1  54.854   23.408    3.350
  372 1  56.955   24.687    3.350
  373 1  56.898   27.146    3.350
  374 1  58.999   28.424    3.350
  375 1  58.943   30.883    3.350
  376 1  61.044   32.162    3.350
  377 1  60.987   34.621    3.350
  378 1  63.088   35.899    3.350
  379 1  63.031   38.358    3.350
  380 1  65.132   39.637    3.350
  381 1  65.075   42.096    3.350
  382 1  67.176   43.374    3.350
  383 1  67.120   45.833    3.350
  384 1  46.848    1.082    3.350
  385 1  46.791    3.541    3.350
  386 1  48.892    4.819    3.350
  387 1  48.835    7.278    3.350
  388 1  50.936    8.557    3.350
  389 1  50.879   11.016    3.350
  390 1  52.980   12.294    3.350
  391 1  52.923   14.753    3.350
  392 1  55.025   16.032    3.350
  393 1  54.968   18.491    3.350
  394 1  57.069   19.769    3.350
  395 1  57.012   22.228    3.350
  396 1  59.113   23.507    3.350
  397 1  59.056   25.966    3.350
  398 1  61.157   27.244    3.350
  399 1  61.101   29.703    3.350
  400 1  63.202   30.982    3.350
  401 1  63.145   33.440    3.350
  402 1  65.246   34.719    3.350
  403 1  65.189   37.178    3.350
  404 1  67.290   38.457    3.350
  405 1  67.233   40.915    3.350
  406 1  69.334   42.194    3.350
  407 1  69.278   44.653    3.350
  408 1  71.379   45.931    3.350
  409 1  48.949    2.361    3.350
  410 1  51.050    3.639    3.350
  411 1  50.993    6.098    3.350
  412 1  53.094    7.377    3.350
  413 1  53.037    9.835    3.350
  414 1  55.138   11.114    3.350
  415 1  55.081   13.573    3.350
  416 1  57.182   14.851    3.350
  417 1  57.126   17.310    3.350
  418 1  59.227   18.589    3.350
  419 1  59.170   21.048    3.350
  420 1  61.271   22.326    3.350
  421 1  61.214   24.785    3.350
  422 1  63.315   26.064    3.350
  423 1  63.258   28.523    3.350
  424 1  65.359   29.801    3.350
  425 1  65.303   32.260    3.350
  426 1  67.404   33.539    3.350
  427 1  67.347   35.998    3.350
  428 1  69.448   37.276    3.350
  429 1  69.391   39.735    3.350
  430 1  71.492   41.014    3.350
  431 1  71.435   43.473    3.350
  432 1  73.536   44.751    3.350
  433 1  51.106    1.180    3.350
  434 1  53.207    2.459    3.350
  435 1  53.151    4.918    3.350
  436 1  55.252    6.196    3.350
  437 1  55.195    8.655    3.350
  438 1  57.296    9.934    3.350
  439 1  57.239   12.393    3.350
  440 1  59.340   13.671    3.350
  441 1  59.283   16.130    3.350
  442 1  61.384   17.409    3.350
  443 1  61.328   19.868    3.350
  444 1  63.429   21.146    3.350
  445 1  63.372   23.605    3.350
  446 1  65.473   24.884    3.350
  447 1  65.416   27.342    3.350
  448 1  67.517   28.621    3.350
  449 1  67.460   31.080    3.350
  450 1  69.561   32.359    3.350
  451 1  69.505   34.817    3.350
  452 1  71.606   36.096    3.350
  453 1  71.549   38.555    3.350
  454 1  73.650   39.833    3.350
  455 1  73.593   42.292    3.350
  456 1  75.694   43.571    3.350
  457 1  75.637   46.030    3.350
  458 1  55.308    3.737    3.350
  459 1  57.353    7.475    3.350
  460 1  59.397   11.212    3.350
  461 1  61.441   14.950    3.350
  462 1  63.485   18.687    3.350
  463 1  65.530   22.425    3.350
  464 1  67.574   26.162    3.350
  465 1  69.618   29.900    3.350
  466 1  71.662   33.637    3.350
  467 1  73.707   37.375    3.350
  468 1  75.751   41.112    3.350
  469 1  77.795   44.850    3.350
  470 1   2.782    2.524    3.350
  471 1   4.827    6.262    3.350
  472 1   6.871    9.999    3.350
  473 1   8.915   13.737    3.350
  474 1  10.959   17.474    3.350
  475 1  13.004   21.212    3.350
  476 1  15.048   24.949    3.350
  477 1  17.092   28.687    3.350
  478 1  19.136   32.424    3.350
  479 1  21.181   36.162    3.350
  480 1  23.225   39.899    3.350
  481 1  25.269   43.637    3.350
  482 1   2.839    0.066    3.350
  483 1   4.940    1.344    3.350
  484 1   4.883    3.803    3.350
  485 1   6.985    5.082    3.350
  486 1   6.928    7.540    3.350
  487 1   9.029    8.819    3.350
  488 1   8.972   11.278    3.350
  489 1  11.073   12.557    3.350
  490 1  11.016   15.015    3.350
  491 1  13.117   16.294    3.350
  492 1  13.061   18.753    3.350
  493 1  15.162   20.031    3.350
  494 1  15.105   22.490    3.350
  495 1  17.206   23.769    3.350
  496 1  17.149   26.228    3.350
  497 1  19.250   27.506    3.350
  498 1  19.193   29.965    3.350
  499 1  21.294   31.244    3.350
  500 1  21.238   33.703    3.350
  501 1  23.339   34.981    3.350
  502 1  23.282   37.440    3.350
  503 1  25.383   38.719    3.350
  504 1  25.326   41.178    3.350
  505 1  27.427   42.456    3.350
  506 1  27.370   44.915    3.350
  507 1   7.098    0.164    3.350
  508 1   7.041    2.623    3.350
  509 1   9.142    3.901    3.350
  510 1   9.086    6.360    3.350
  511 1  11.187    7.639    3.350
  512 1  11.130   10.098    3.350
  513 1  13.231   11.376    3.350
  514 1  13.174   13.835    3.350
  515 1  15.275   15.114    3.350
  516 1  15.218   17.573    3.350
  517 1  17.319   18.851    3.350
  518 1  17.263   21.310    3.350
  519 1  19.364   22.589    3.350
  520 1  19.307   25.048    3.350
  521 1  21.408   26.326    3.350
  522 1  21.351   28.785    3.350
  523 1  23.452   30.064    3.350
  524 1  23.395   32.522    3.350
  525 1  25.496   33.801    3.350
  526 1  25.440   36.260    3.350
  527 1  27.541   37.539    3.350
  528 1  27.484   39.997    3.350
  529 1  29.585   41.276    3.350
  530 1  29.528   43.735    3.350
  531 1  31.629   45.013    3.350
  532 1   9.199    1.443    3.350
  533 1  11.300    2.721    3.350
  534 1  11.243    5.180    3.350
  535 1  13.344    6.459    3.350
  536 1  13.288    8.917    3.350
  537 1  15.389   10.196    3.350
  538 1  15.332   12.655    3.350
  539 1  17.433   13.934    3.350
  540 1  17.376   16.392    3.350
  541 1  19.477   17.671    3.350
  542 1  19.420   20.130    3.350
  543 1  21.521   21.408    3.350
  544 1  21.465   23.867    3.350
  545 1  23.566   25.146    3.350
  546 1  23.509   27.605    3.350
  547 1  25.610   28.883    3.350
  548 1  25.553   31.342    3.350
  549 1  27.654   32.621    3.350
  550 1  27.597   35.080    3.350
  551 1  29.698   36.358    3.350
  552 1  29.642   38.817    3.350
  553 1  31.743   40.096    3.350
  554 1  31.686   42.555    3.350
  555 1  33.787   43.833    3.350
  556 1  11.357    0.262    3.350
  557 1  13.458    1.541    3.350
  558 1  13.401    4.000    3.350
  559 1  15.502    5.278    3.350
  560 1  15.445    7.737    3.350
  561 1  17.547    9.016    3.350
  562 1  17.490   11.475    3.350
  563 1  19.591   12.753    3.350
  564 1  19.534   15.212    3.350
  565 1  21.635   16.491    3.350
  566 1  21.578   18.950    3.350
  567 1  23.679   20.228    3.350
  568 1  23.623   22.687    3.350
  569 1  25.724   23.966    3.350
  570 1  25.667   26.425    3.350
  571 1  27.768   27.703    3.350
  572 1  27.711   30.162    3.350
  573 1  29.812   31.441    3.350
  574 1  29.755   33.899    3.350
  575 1  31.856   35.178    3.350
  576 1  31.800   37.637    3.350
  577 1  33.901   38.916    3.350
  578 1  33.844   41.374    3.350
  579 1  35.945   42.653    3.350
  580 1  35.888   45.112    3.350
  581 1  15.616    0.361    3.350
  582 1  15.559    2.819    3.350
  583 1  17.660    4.098    3.350
  584 1  17.603    6.557    3.350
  585 1  19.704    7.836    3.350
  586 1  19.648   10.294    3.350
  587 1  21.749   11.573    3.350
  588 1  21.692   14.032    3.350
  589 1  23.793   15.310    3.350
  590 1  23.736   17.769    3.350
  591 1  25.837   19.048    3.350
  592 1  25.780   21.507    3.350
  593 1  27.881   22.785    3.350
  594 1  27.825   25.244    3.350
  595 1  29.926   26.523    3.350
  596 1  29.869   28.982    3.350
  597 1  31.970   30.260    3.350
  598 1  31.913   32.719    3.350
  599 1  34.014   33.998    3.350
  600 1  33.957   36.457    3.350
  601 1  36.058   37.735    3.350
  602 1  36.002   40.194    3.350
  603 1  38.103   41.473    3.350
  604 1  38.046   43.932    3.350
  605 1  40.147   45.210    3.350
  606 1  17.717    1.639    3.350
  607 1  19.818    2.918    3.350
  608 1  19.761    5.377    3.350
  609 1  21.862    6.655    3.350
  610 1  21.805    9.114    3.350
  611 1  23.906   10.393    3.350
  612 1  23.850   12.852    3.350
  613 1  25.951   14.130    3.350
  614 1  25.894   16.589    3.350
  615 1  27.995   17.868    3.350
  616 1  27.938   20.327    3.350
  617 1  30.039   21.605    3.350
  618 1  29.982   24.064    3.350
  619 1  32.083   25.343    3.350
  620 1  32.027   27.801    3.350
  621 1  34.128   29.080    3.350
  622 1  34.071   31.539    3.350
  623 1  36.172   32.818    3.350
  624 1  36.115   35.276    3.350
  625 1  38.216   36.555    3.350
  626 1  38.159   39.014    3.350
  627 1  40.260   40.292    3.350
  628 1  40.204   42.751    3.350
  629 1  42.305   44.030    3.350
  630 1  19.875    0.459    3.350
  631 1  21.976    1.738    3.350
  632 1  21.919    4.196    3.350
  633 1  24.020    5.475    3.350
  634 1  23.963    7.934    3.350
  635 1  26.064    9.213    3.350
  636 1  26.007   11.671    3.350
  637 1  28.109   12.950    3.350
  638 1  28.052   15.409    3.350
  639 1  30.153   16.687    3.350
  640 1  30.096   19.146    3.350
  641 1  32.197   20.425    3.350
  642 1  32.140   22.884    3.350
  643 1  34.241   24.162    3.350
  644 1  34.184   26.621    3.350
  645 1  36.286   27.900    3.350
  646 1  36.229   30.359    3.350
  647 1  38.330   31.637    3.350
  648 1  38.273   34.096    3.350
  649 1  40.374   35.375    3.350
  650 1  40.317   37.834    3.350
  651 1  42.418   39.112    3.350
  652 1  42.362   41.571    3.350
  653 1  44.463   42.850    3.350
  654 1  44.406   45.309    3.350
  655 1  24.134    0.557    3.350
  656 1  24.077    3.016    3.350
  657 1  26.178    4.295    3.350
  658 1  26.121    6.754    3.350
  659 1  28.222    8.032    3.350
  660 1  28.165   10.491    3.350
  661 1  30.266   11.770    3.350
  662 1  30.210   14.229    3.350
  663 1  32.311   15.507    3.350
  664 1  32.254   17.966    3.350
  665 1  34.355   19.245    3.350
  666 1  34.298   21.704    3.350
  667 1  36.399   22.982    3.350
  668 1  36.342   25.441    3.350
  669 1  38.443   26.720    3.350
  670 1  38.387   29.178    3.350
  671 1  40.488   30.457    3.350
  672 1  40.431   32.916    3.350
  673 1  42.532   34.194    3.350
  674 1  42.475   36.653    3.350
  675 1  44.576   37.932    3.350
  676 1  44.519   40.391    3.350
  677 1  46.620   41.669    3.350
  678 1  46.564   44.128    3.350
  679 1  48.665   45.407    3.350
  680 1  26.235    1.836    3.350
  681 1  28.336    3.115    3.350
  682 1  28.279    5.573    3.350
  683 1  30.380    6.852    3.350
  684 1  30.323    9.311    3.350
  685 1  32.424   10.589    3.350
  686 1  32.367   13.048    3.350
  687 1  34.468   14.327    3.350
  688 1  34.412   16.786    3.350
  689 1  36.513   18.064    3.350
  690 1  36.456   20.523    3.350
  691 1  38.557   21.802    3.350
  692 1  38.500   24.261    3.350
  693 1  40.601   25.539    3.350
  694 1  40.544   27.998    3.350
  695 1  42.645   29.277    3.350
  696 1  42.589   31.736    3.350
  697 1  44.690   33.014    3.350
  698 1  44.633   35.473    3.350
  699 1  46.734   36.752    3.350
  700 1  46.677   39.211    3.350
  701 1  48.778   40.489    3.350
  702 1  48.721   42.948    3.350
  703 1  50.822   44.227    3.350
  704 1  28.392    0.656    3.350
  705 1  30.493    1.934    3.350
  706 1  30.437    4.393    3.350
  707 1  32.538    5.672    3.350
  708 1  32.481    8.131    3.350
  709 1  34.582    9.409    3.350
  710 1  34.525   11.868    3.350
  711 1  36.626   13.147    3.350
  712 1  36.569   15.606    3.350
  713 1  38.670   16.884    3.350
  714 1  38.614   19.343    3.350
  715 1  40.715   20.622    3.350
  716 1  40.658   23.080    3.350
  717 1  42.759   24.359    3.350
  718 1  42.702   26.818    3.350
  719 1  44.803   28.097    3.350
  720 1  44.746   30.555    3.350
  721 1  46.848   31.834    3.350
  722 1  46.791   34.293    3.350
  723 1  48.892   35.571    3.350
  724 1  48.835   38.030    3.350
  725 1  50.936   39.309    3.350
  726 1  50.879   41.768    3.350
  727 1  52.980   43.046    3.350
  728 1  52.923   45.505    3.350
  729 1  32.651    0.754    3.350
  730 1  32.595    3.213    3.350
  731 1  34.696    4.492    3.350
  732 1  34.639    6.950    3.350
  733 1  36.740    8.229    3.350
  734 1  36.683   10.688    3.350
  735 1  38.784   11.966    3.350
  736 1  38.727   14.425    3.350
  737 1  40.828   15.704    3.350
  738 1  40.772   18.163    3.350
  739 1  42.873   19.441    3.350
  740 1  42.816   21.900    3.350
  741 1  44.917   23.179    3.350
  742 1  44.860   25.638    3.350
  743 1  46.961   26.916    3.350
  744 1  46.904   29.375    3.350
  745 1  49.005   30.654    3.350
  746 1  48.949   33.113    3.350
  747 1  51.050   34.391    3.350
  748 1  50.993   36.850    3.350
  749 1  53.094   38.129    3.350
  750 1  53.037   40.588    3.350
  751 1  55.138   41.866    3.350
  752 1  55.081   44.325    3.350
  753 1  57.182   45.604    3.350
  754 1  34.752    2.033    3.350
  755 1  36.853    3.311    3.350
  756 1  36.797    5.770    3.350
  757 1  38.898    7.049    3.350
  758 1  38.841    9.508    3.350
  759 1  40.942   10.786    3.350
  760 1  40.885   13.245    3.350
  761 1  42.986   14.524    3.350
  762 1  42.929   16.983    3.350
  763 1  45.030   18.261    3.350
  764 1  44.974   20.720    3.350
  765 1  47.075   21.999    3.350
  766 1  47.018   24.457    3.350
  767 1  49.119   25.736    3.350
  768 1  49.062   28.195    3.350
  769 1  51.163   29.473    3.350
  770 1  51.106   31.932    3.350
  771 1  53.207   33.211    3.350
  772 1  53.151   35.670    3.350
  773 1  55.252   36.948    3.350
  774 1  55.195   39.407    3.350
  775 1  57.296   40.686    3.350
  776 1  57.239   43.145    3.350
  777 1  59.340   44.423    3.350
  778 1  36.910    0.852    3.350
  779 1  39.011    2.131    3.350
  780 1  38.954    4.590    3.350
  781 1  41.055    5.868    3.350
  782 1  40.999    8.327    3.350
  783 1  43.100    9.606    3.350
  784 1  43.043   12.065    3.350
  785 1  45.144   13.343    3.350
  786 1  45.087   15.802    3.350
  787 1  47.188   17.081    3.350
  788 1  47.131   19.540    3.350
  789 1  49.232   20.818    3.350
  790 1  49.176   23.277    3.350
  791 1  51.277   24.556    3.350
  792 1  51.220   27.015    3.350
  793 1  53.321   28.293    3.350
  794 1  53.264   30.752    3.350
  795 1  55.365   32.031    3.350
  796 1  55.308   34.490    3.350
  797 1  57.409   35.768    3.350
  798 1  57.353   38.227    3.350
  799 1  59.454   39.506    3.350
  800 1  59.397   41.964    3.350
  801 1  61.498   43.243    3.350
  802 1  61.441   45.702    3.350
  803 1  41.169    0.951    3.350
  804 1  41.112    3.410    3.350
  805 1  43.213    4.688    3.350
  806 1  43.156    7.147    3.350
  807 1  45.258    8.426    3.350
  808 1  45.201   10.885    3.350
  809 1  47.302   12.163    3.350
  810 1  47.245   14.622    3.350
  811 1  49.346   15.901    3.350
  812 1  49.289   18.359    3.350
  813 1  51.390   19.638    3.350
  814 1  51.334   22.097    3.350
  815 1  53.435   23.376    3.350
  816 1  53.378   25.834    3.350
  817 1  55.479   27.113    3.350
  818 1  55.422   29.572    3.350
  819 1  57.523   30.850    3.350
  820 1  57.466   33.309    3.350
  821 1  59.567   34.588    3.350
  822 1  59.511   37.047    3.350
  823 1  61.612   38.325    3.350
  824 1  61.555   40.784    3.350
  825 1  63.656   42.063    3.350
  826 1  63.599   44.522    3.350
  827 1  65.700   45.800    3.350
  828 1  43.270    2.229    3.350
  829 1  45.371    3.508    3.350
  830 1  45.314    5.967    3.350
  831 1  47.415    7.245    3.350
  832 1  47.359    9.704    3.350
  833 1  49.460   10.983    3.350
  834 1  49.403   13.442    3.350
  835 1  51.504   14.720    3.350
  836 1  51.447   17.179    3.350
  837 1  53.548   18.458    3.350
  838 1  53.491   20.917    3.350
  839 1  55.592   22.195    3.350
  840 1  55.536   24.654    3.350
  841 1  57.637   25.933    3.350
  842 1  57.580   28.392    3.350
  843 1  59.681   29.670    3.350
  844 1  59.624   32.129    3.350
  845 1  61.725   33.408    3.350
  846 1  61.668   35.867    3.350
  847 1  63.769   37.145    3.350
  848 1  63.713   39.604    3.350
  849 1  65.814   40.883    3.350
  850 1  65.757   43.341    3.350
  851 1  67.858   44.620    3.350