#Lammps data file

 6076 atoms
    2 atom types

  0.0000  95.8579 xlo xhi
  0.0000  83.0154 ylo yhi
-10.0000  13.3500 zlo zhi
 47.9289   0.0000   0.0000 xy xz yz 

Masses

 1 12
 2 12

Atoms

    1 1   0.000    0.000    3.350
    2 1   2.114    1.257    3.350
    3 1   4.197    4.973    3.350
    4 1   6.279    8.690    3.350
    5 1   8.362   12.406    3.350
    6 1  10.444   16.122    3.350
    7 1  12.527   19.838    3.350
    8 1  14.609   23.555    3.350
    9 1  16.692   27.271    3.350
   10 1  18.774   30.987    3.350
   11 1  20.857   34.704    3.350
   12 1  22.939   38.420    3.350
   13 1  25.021   42.136    3.350
   14 1  27.104   45.852    3.350
   15 1  29.186   49.569    3.350
   16 1  31.269   53.285    3.350
   17 1  33.351   57.001    3.350
   18 1  35.434   60.718    3.350
   19 1  37.516   64.434    3.350
   20 1  39.599   68.150    3.350
   21 1  41.681   71.866    3.350
   22 1  43.764   75.583    3.350
   23 1  45.846   79.299    3.350
   24 1   4.260    0.055    3.350
   25 1   4.228    2.514    3.350
   26 1   6.342    3.771    3.350
   27 1   6.311    6.230    3.350
   28 1   8.425    7.487    3.350
   29 1   8.393    9.947    3.350
   30 1  10.507   11.204    3.350
   31 1  10.476   13.663    3.350
   32 1  12.590   14.920    3.350
   33 1  12.558   17.379    3.350
   34 1  14.672   18.636    3.350
   35 1  14.641   21.095    3.350
   36 1  16.755   22.352    3.350
   37 1  16.723   24.812    3.350
   38 1  18.837   26.069    3.350
   39 1  18.806   28.528    3.350
   40 1  20.920   29.785    3.350
   41 1  20.888   32.244    3.350
   42 1  23.002   33.501    3.350
   43 1  22.971   35.961    3.350
   44 1  25.085   37.218    3.350
   45 1  25.053   39.677    3.350
   46 1  27.167   40.934    3.350
   47 1  27.136   43.393    3.350
   48 1  29.250   44.650    3.350
   49 1  29.218   47.109    3.350
   50 1  31.332   48.366    3.350
   51 1  31.301   50.826    3.350
   52 1  33.415   52.083    3.350
   53 1  33.383   54.542    3.350
   54 1  35.497   55.799    3.350
   55 1  35.466   58.258    3.350
   56 1  37.580   59.515    3.350
   57 1  37.548   61.975    3.350
   58 1  39.662   63.232    3.350
   59 1  39.631   65.691    3.350
   60 1  41.745   66.948    3.350
   61 1  41.713   69.407    3.350
   62 1  43.827   70.664    3.350
   63 1  43.796   73.123    3.350
   64 1  45.910   74.380    3.350
   65 1  45.878   76.840    3.350
   66 1  47.992   78.097    3.350
   67 1  47.960   80.556    3.350
   68 1  50.075   81.813    3.350
   69 1   6.374    1.312    3.350
   70 1   8.488    2.569    3.350
   71 1   8.456    5.028    3.350
   72 1  10.570    6.285    3.350
   73 1  10.539    8.744    3.350
   74 1  12.653   10.001    3.350
   75 1  12.621   12.461    3.350
   76 1  14.735   13.717    3.350
   77 1  14.704   16.177    3.350
   78 1  16.818   17.434    3.350
   79 1  16.786   19.893    3.350
   80 1  18.900   21.150    3.350
   81 1  18.869   23.609    3.350
   82 1  20.983   24.866    3.350
   83 1  20.951   27.326    3.350
   84 1  23.065   28.583    3.350
   85 1  23.034   31.042    3.350
   86 1  25.148   32.299    3.350
   87 1  25.116   34.758    3.350
   88 1  27.230   36.015    3.350
   89 1  27.199   38.475    3.350
   90 1  29.313   39.732    3.350
   91 1  29.281   42.191    3.350
   92 1  31.395   43.448    3.350
   93 1  31.364   45.907    3.350
   94 1  33.478   47.164    3.350
   95 1  33.446   49.623    3.350
   96 1  35.560   50.880    3.350
   97 1  35.529   53.340    3.350
   98 1  37.643   54.597    3.350
   99 1  37.611   57.056    3.350
  100 1  39.725   58.313    3.350
  101 1  39.694   60.772    3.350
  102 1  41.808   62.029    3.350
  103 1  41.776   64.489    3.350
  104 1  43.890   65.746    3.350
  105 1  43.859   68.205    3.350
  106 1  45.973   69.462    3.350
  107 1  45.941   71.921    3.350
  108 1  48.055   73.178    3.350
  109 1  48.024   75.637    3.350
  110 1  50.138   76.894    3.350
  111 1  50.106   79.354    3.350
  112 1  52.220   80.611    3.350
  113 1   8.519    0.109    3.350
  114 1  10.633    1.366    3.350
  115 1  10.602    3.826    3.350
  116 1  12.716    5.083    3.350
  117 1  12.684    7.542    3.350
  118 1  14.798    8.799    3.350
  119 1  14.767   11.258    3.350
  120 1  16.881   12.515    3.350
  121 1  16.849   14.974    3.350
  122 1  18.963   16.231    3.350
  123 1  18.932   18.691    3.350
  124 1  21.046   19.948    3.350
  125 1  21.014   22.407    3.350
  126 1  23.128   23.664    3.350
  127 1  23.097   26.123    3.350
  128 1  25.211   27.380    3.350
  129 1  25.179   29.840    3.350
  130 1  27.293   31.097    3.350
  131 1  27.262   33.556    3.350
  132 1  29.376   34.813    3.350
  133 1  29.344   37.272    3.350
  134 1  31.458   38.529    3.350
  135 1  31.427   40.988    3.350
  136 1  33.541   42.245    3.350
  137 1  33.509   44.705    3.350
  138 1  35.623   45.962    3.350
  139 1  35.592   48.421    3.350
  140 1  37.706   49.678    3.350
  141 1  37.674   52.137    3.350
  142 1  39.788   53.394    3.350
  143 1  39.757   55.854    3.350
  144 1  41.871   57.111    3.350
  145 1  41.839   59.570    3.350
  146 1  43.953   60.827    3.350
  147 1  43.922   63.286    3.350
  148 1  46.036   64.543    3.350
  149 1  46.004   67.003    3.350
  150 1  48.118   68.260    3.350
  151 1  48.087   70.719    3.350
  152 1  50.201   71.976    3.350
  153 1  50.169   74.435    3.350
  154 1  52.283   75.692    3.350
  155 1  52.252   78.151    3.350
  156 1  54.366   79.408    3.350
  157 1  54.334   81.868    3.350
  158 1  12.779    0.164    3.350
  159 1  12.747    2.623    3.350
  160 1  14.861    3.880    3.350
  161 1  14.830    6.340    3.350
  162 1  16.944    7.597    3.350
  163 1  16.912   10.056    3.350
  164 1  19.026   11.313    3.350
  165 1  18.995   13.772    3.350
  166 1  21.109   15.029    3.350
  167 1  21.077   17.488    3.350
  168 1  23.191   18.745    3.350
  169 1  23.160   21.205    3.350
  170 1  25.274   22.462    3.350
  171 1  25.242   24.921    3.350
  172 1  27.356   26.178    3.350
  173 1  27.325   28.637    3.350
  174 1  29.439   29.894    3.350
  175 1  29.407   32.354    3.350
  176 1  31.521   33.611    3.350
  177 1  31.490   36.070    3.350
  178 1  33.604   37.327    3.350
  179 1  33.572   39.786    3.350
  180 1  35.686   41.043    3.350
  181 1  35.655   43.502    3.350
  182 1  37.769   44.759    3.350
  183 1  37.737   47.219    3.350
  184 1  39.851   48.476    3.350
  185 1  39.820   50.935    3.350
  186 1  41.934   52.192    3.350
  187 1  41.902   54.651    3.350
  188 1  44.016   55.908    3.350
  189 1  43.985   58.368    3.350
  190 1  46.099   59.625    3.350
  191 1  46.067   62.084    3.350
  192 1  48.181   63.341    3.350
  193 1  48.150   65.800    3.350
  194 1  50.264   67.057    3.350
  195 1  50.232   69.516    3.350
  196 1  52.346   70.773    3.350
  197 1  52.315   73.233    3.350
  198 1  54.429   74.490    3.350
  199 1  54.397   76.949    3.350
  200 1  56.511   78.206    3.350
  201 1  56.480   80.665    3.350
  202 1  58.594   81.922    3.350
  203 1  14.893    1.421    3.350
  204 1  17.007    2.678    3.350
  205 1  16.975    5.137    3.350
  206 1  19.090    6.394    3.350
  207 1  19.058    8.854    3.350
  208 1  21.172   10.110    3.350
  209 1  21.140   12.570    3.350
  210 1  23.255   13.827    3.350
  211 1  23.223   16.286    3.350
  212 1  25.337   17.543    3.350
  213 1  25.305   20.002    3.350
  214 1  27.420   21.259    3.350
  215 1  27.388   23.719    3.350
  216 1  29.502   24.976    3.350
  217 1  29.470   27.435    3.350
  218 1  31.585   28.692    3.350
  219 1  31.553   31.151    3.350
  220 1  33.667   32.408    3.350
  221 1  33.635   34.868    3.350
  222 1  35.750   36.125    3.350
  223 1  35.718   38.584    3.350
  224 1  37.832   39.841    3.350
  225 1  37.800   42.300    3.350
  226 1  39.914   43.557    3.350
  227 1  39.883   46.016    3.350
  228 1  41.997   47.273    3.350
  229 1  41.965   49.733    3.350
  230 1  44.079   50.990    3.350
  231 1  44.048   53.449    3.350
  232 1  46.162   54.706    3.350
  233 1  46.130   57.165    3.350
  234 1  48.244   58.422    3.350
  235 1  48.213   60.882    3.350
  236 1  50.327   62.139    3.350
  237 1  50.295   64.598    3.350
  238 1  52.409   65.855    3.350
  239 1  52.378   68.314    3.350
  240 1  54.492   69.571    3.350
  241 1  54.460   72.030    3.350
  242 1  56.574   73.287    3.350
  243 1  56.543   75.747    3.350
  244 1  58.657   77.004    3.350
  245 1  58.625   79.463    3.350
  246 1  60.739   80.720    3.350
  247 1  17.039    0.219    3.350
  248 1  19.153    1.476    3.350
  249 1  19.121    3.935    3.350
  250 1  21.235    5.192    3.350
  251 1  21.204    7.651    3.350
  252 1  23.318    8.908    3.350
  253 1  23.286   11.367    3.350
  254 1  25.400   12.624    3.350
  255 1  25.369   15.084    3.350
  256 1  27.483   16.341    3.350
  257 1  27.451   18.800    3.350
  258 1  29.565   20.057    3.350
  259 1  29.534   22.516    3.350
  260 1  31.648   23.773    3.350
  261 1  31.616   26.233    3.350
  262 1  33.730   27.490    3.350
  263 1  33.699   29.949    3.350
  264 1  35.813   31.206    3.350
  265 1  35.781   33.665    3.350
  266 1  37.895   34.922    3.350
  267 1  37.864   37.382    3.350
  268 1  39.978   38.638    3.350
  269 1  39.946   41.098    3.350
  270 1  42.060   42.355    3.350
  271 1  42.029   44.814    3.350
  272 1  44.143   46.071    3.350
  273 1  44.111   48.530    3.350
  274 1  46.225   49.787    3.350
  275 1  46.194   52.247    3.350
  276 1  48.308   53.504    3.350
  277 1  48.276   55.963    3.350
  278 1  50.390   57.220    3.350
  279 1  50.359   59.679    3.350
  280 1  52.473   60.936    3.350
  281 1  52.441   63.396    3.350
  282 1  54.555   64.653    3.350
  283 1  54.524   67.112    3.350
  284 1  56.638   68.369    3.350
  285 1  56.606   70.828    3.350
  286 1  58.720   72.085    3.350
  287 1  58.689   74.544    3.350
  288 1  60.803   75.801    3.350
  289 1  60.771   78.261    3.350
  290 1  62.885   79.518    3.350
  291 1  62.853   81.977    3.350
  292 1  21.298    0.273    3.350
  293 1  21.267    2.733    3.350
  294 1  23.381    3.990    3.350
  295 1  23.349    6.449    3.350
  296 1  25.463    7.706    3.350
  297 1  25.432   10.165    3.350
  298 1  27.546   11.422    3.350
  299 1  27.514   13.881    3.350
  300 1  29.628   15.138    3.350
  301 1  29.597   17.598    3.350
  302 1  31.711   18.855    3.350
  303 1  31.679   21.314    3.350
  304 1  33.793   22.571    3.350
  305 1  33.762   25.030    3.350
  306 1  35.876   26.287    3.350
  307 1  35.844   28.747    3.350
  308 1  37.958   30.004    3.350
  309 1  37.927   32.463    3.350
  310 1  40.041   33.720    3.350
  311 1  40.009   36.179    3.350
  312 1  42.123   37.436    3.350
  313 1  42.092   39.895    3.350
  314 1  44.206   41.152    3.350
  315 1  44.174   43.612    3.350
  316 1  46.288   44.869    3.350
  317 1  46.257   47.328    3.350
  318 1  48.371   48.585    3.350
  319 1  48.339   51.044    3.350
  320 1  50.453   52.301    3.350
  321 1  50.422   54.761    3.350
  322 1  52.536   56.018    3.350
  323 1  52.504   58.477    3.350
  324 1  54.618   59.734    3.350
  325 1  54.587   62.193    3.350
  326 1  56.701   63.450    3.350
  327 1  56.669   65.910    3.350
  328 1  58.783   67.166    3.350
  329 1  58.752   69.626    3.350
  330 1  60.866   70.883    3.350
  331 1  60.834   73.342    3.350
  332 1  62.948   74.599    3.350
  333 1  62.917   77.058    3.350
  334 1  65.031   78.315    3.350
  335 1  64.999   80.775    3.350
  336 1  67.113   82.032    3.350
  337 1  23.412    1.530    3.350
  338 1  25.526    2.787    3.350
  339 1  25.495    5.247    3.350
  340 1  27.609    6.504    3.350
  341 1  27.577    8.963    3.350
  342 1  29.691   10.220    3.350
  343 1  29.660   12.679    3.350
  344 1  31.774   13.936    3.350
  345 1  31.742   16.395    3.350
  346 1  33.856   17.652    3.350
  347 1  33.825   20.112    3.350
  348 1  35.939   21.369    3.350
  349 1  35.907   23.828    3.350
  350 1  38.021   25.085    3.350
  351 1  37.990   27.544    3.350
  352 1  40.104   28.801    3.350
  353 1  40.072   31.261    3.350
  354 1  42.186   32.518    3.350
  355 1  42.155   34.977    3.350
  356 1  44.269   36.234    3.350
  357 1  44.237   38.693    3.350
  358 1  46.351   39.950    3.350
  359 1  46.320   42.409    3.350
  360 1  48.434   43.666    3.350
  361 1  48.402   46.126    3.350
  362 1  50.516   47.383    3.350
  363 1  50.485   49.842    3.350
  364 1  52.599   51.099    3.350
  365 1  52.567   53.558    3.350
  366 1  54.681   54.815    3.350
  367 1  54.650   57.275    3.350
  368 1  56.764   58.532    3.350
  369 1  56.732   60.991    3.350
  370 1  58.846   62.248    3.350
  371 1  58.815   64.707    3.350
  372 1  60.929   65.964    3.350
  373 1  60.897   68.423    3.350
  374 1  63.011   69.680    3.350
  375 1  62.980   72.140    3.350
  376 1  65.094   73.397    3.350
  377 1  65.062   75.856    3.350
  378 1  67.176   77.113    3.350
  379 1  67.145   79.572    3.350
  380 1  69.259   80.829    3.350
  381 1  25.558    0.328    3.350
  382 1  27.672    1.585    3.350
  383 1  27.640    4.044    3.350
  384 1  29.754    5.301    3.350
  385 1  29.723    7.760    3.350
  386 1  31.837    9.017    3.350
  387 1  31.805   11.477    3.350
  388 1  33.919   12.734    3.350
  389 1  33.888   15.193    3.350
  390 1  36.002   16.450    3.350
  391 1  35.970   18.909    3.350
  392 1  38.084   20.166    3.350
  393 1  38.053   22.626    3.350
  394 1  40.167   23.883    3.350
  395 1  40.135   26.342    3.350
  396 1  42.249   27.599    3.350
  397 1  42.218   30.058    3.350
  398 1  44.332   31.315    3.350
  399 1  44.300   33.775    3.350
  400 1  46.414   35.032    3.350
  401 1  46.383   37.491    3.350
  402 1  48.497   38.748    3.350
  403 1  48.465   41.207    3.350
  404 1  50.579   42.464    3.350
  405 1  50.548   44.923    3.350
  406 1  52.662   46.180    3.350
  407 1  52.630   48.640    3.350
  408 1  54.744   49.897    3.350
  409 1  54.713   52.356    3.350
  410 1  56.827   53.613    3.350
  411 1  56.795   56.072    3.350
  412 1  58.909   57.329    3.350
  413 1  58.878   59.789    3.350
  414 1  60.992   61.046    3.350
  415 1  60.960   63.505    3.350
  416 1  63.074   64.762    3.350
  417 1  63.043   67.221    3.350
  418 1  65.157   68.478    3.350
  419 1  65.125   70.937    3.350
  420 1  67.239   72.194    3.350
  421 1  67.208   74.654    3.350
  422 1  69.322   75.911    3.350
  423 1  69.290   78.370    3.350
  424 1  71.404   79.627    3.350
  425 1  71.373   82.086    3.350
  426 1  29.818    0.383    3.350
  427 1  29.786    2.842    3.350
  428 1  31.900    4.099    3.350
  429 1  31.868    6.558    3.350
  430 1  33.983    7.815    3.350
  431 1  33.951   10.274    3.350
  432 1  36.065   11.531    3.350
  433 1  36.033   13.991    3.350
  434 1  38.148   15.248    3.350
  435 1  38.116   17.707    3.350
  436 1  40.230   18.964    3.350
  437 1  40.198   21.423    3.350
  438 1  42.313   22.680    3.350
  439 1  42.281   25.140    3.350
  440 1  44.395   26.397    3.350
  441 1  44.363   28.856    3.350
  442 1  46.478   30.113    3.350
  443 1  46.446   32.572    3.350
  444 1  48.560   33.829    3.350
  445 1  48.528   36.288    3.350
  446 1  50.642   37.545    3.350
  447 1  50.611   40.005    3.350
  448 1  52.725   41.262    3.350
  449 1  52.693   43.721    3.350
  450 1  54.807   44.978    3.350
  451 1  54.776   47.437    3.350
  452 1  56.890   48.694    3.350
  453 1  56.858   51.154    3.350
  454 1  58.972   52.411    3.350
  455 1  58.941   54.870    3.350
  456 1  61.055   56.127    3.350
  457 1  61.023   58.586    3.350
  458 1  63.137   59.843    3.350
  459 1  63.106   62.303    3.350
  460 1  65.220   63.559    3.350
  461 1  65.188   66.019    3.350
  462 1  67.302   67.276    3.350
  463 1  67.271   69.735    3.350
  464 1  69.385   70.992    3.350
  465 1  69.353   73.451    3.350
  466 1  71.467   74.708    3.350
  467 1  71.436   77.168    3.350
  468 1  73.550   78.425    3.350
  469 1  73.518   80.884    3.350
  470 1  75.632   82.141    3.350
  471 1  31.932    1.640    3.350
  472 1  34.046    2.897    3.350
  473 1  34.014    5.356    3.350
  474 1  36.128    6.613    3.350
  475 1  36.097    9.072    3.350
  476 1  38.211   10.329    3.350
  477 1  38.179   12.788    3.350
  478 1  40.293   14.045    3.350
  479 1  40.262   16.505    3.350
  480 1  42.376   17.762    3.350
  481 1  42.344   20.221    3.350
  482 1  44.458   21.478    3.350
  483 1  44.427   23.937    3.350
  484 1  46.541   25.194    3.350
  485 1  46.509   27.654    3.350
  486 1  48.623   28.911    3.350
  487 1  48.592   31.370    3.350
  488 1  50.706   32.627    3.350
  489 1  50.674   35.086    3.350
  490 1  52.788   36.343    3.350
  491 1  52.757   38.802    3.350
  492 1  54.871   40.059    3.350
  493 1  54.839   42.519    3.350
  494 1  56.953   43.776    3.350
  495 1  56.922   46.235    3.350
  496 1  59.036   47.492    3.350
  497 1  59.004   49.951    3.350
  498 1  61.118   51.208    3.350
  499 1  61.087   53.668    3.350
  500 1  63.201   54.925    3.350
  501 1  63.169   57.384    3.350
  502 1  65.283   58.641    3.350
  503 1  65.252   61.100    3.350
  504 1  67.366   62.357    3.350
  505 1  67.334   64.816    3.350
  506 1  69.448   66.073    3.350
  507 1  69.417   68.533    3.350
  508 1  71.531   69.790    3.350
  509 1  71.499   72.249    3.350
  510 1  73.613   73.506    3.350
  511 1  73.581   75.965    3.350
  512 1  75.696   77.222    3.350
  513 1  75.664   79.682    3.350
  514 1  77.778   80.939    3.350
  515 1  34.077    0.437    3.350
  516 1  36.191    1.694    3.350
  517 1  36.160    4.154    3.350
  518 1  38.274    5.410    3.350
  519 1  38.242    7.870    3.350
  520 1  40.356    9.127    3.350
  521 1  40.325   11.586    3.350
  522 1  42.439   12.843    3.350
  523 1  42.407   15.302    3.350
  524 1  44.521   16.559    3.350
  525 1  44.490   19.019    3.350
  526 1  46.604   20.276    3.350
  527 1  46.572   22.735    3.350
  528 1  48.686   23.992    3.350
  529 1  48.655   26.451    3.350
  530 1  50.769   27.708    3.350
  531 1  50.737   30.168    3.350
  532 1  52.851   31.425    3.350
  533 1  52.820   33.884    3.350
  534 1  54.934   35.141    3.350
  535 1  54.902   37.600    3.350
  536 1  57.016   38.857    3.350
  537 1  56.985   41.316    3.350
  538 1  59.099   42.573    3.350
  539 1  59.067   45.033    3.350
  540 1  61.181   46.290    3.350
  541 1  61.150   48.749    3.350
  542 1  63.264   50.006    3.350
  543 1  63.232   52.465    3.350
  544 1  65.346   53.722    3.350
  545 1  65.315   56.182    3.350
  546 1  67.429   57.439    3.350
  547 1  67.397   59.898    3.350
  548 1  69.511   61.155    3.350
  549 1  69.480   63.614    3.350
  550 1  71.594   64.871    3.350
  551 1  71.562   67.330    3.350
  552 1  73.676   68.587    3.350
  553 1  73.645   71.047    3.350
  554 1  75.759   72.304    3.350
  555 1  75.727   74.763    3.350
  556 1  77.841   76.020    3.350
  557 1  77.810   78.479    3.350
  558 1  79.924   79.736    3.350
  559 1  79.892   82.196    3.350
  560 1  38.337    0.492    3.350
  561 1  38.305    2.951    3.350
  562 1  40.419    4.208    3.350
  563 1  40.388    6.667    3.350
  564 1  42.502    7.924    3.350
  565 1  42.470   10.384    3.350
  566 1  44.584   11.641    3.350
  567 1  44.553   14.100    3.350
  568 1  46.667   15.357    3.350
  569 1  46.635   17.816    3.350
  570 1  48.749   19.073    3.350
  571 1  48.718   21.533    3.350
  572 1  50.832   22.790    3.350
  573 1  50.800   25.249    3.350
  574 1  52.914   26.506    3.350
  575 1  52.883   28.965    3.350
  576 1  54.997   30.222    3.350
  577 1  54.965   32.681    3.350
  578 1  57.079   33.938    3.350
  579 1  57.048   36.398    3.350
  580 1  59.162   37.655    3.350
  581 1  59.130   40.114    3.350
  582 1  61.244   41.371    3.350
  583 1  61.213   43.830    3.350
  584 1  63.327   45.087    3.350
  585 1  63.295   47.547    3.350
  586 1  65.409   48.804    3.350
  587 1  65.378   51.263    3.350
  588 1  67.492   52.520    3.350
  589 1  67.460   54.979    3.350
  590 1  69.574   56.236    3.350
  591 1  69.543   58.696    3.350
  592 1  71.657   59.953    3.350
  593 1  71.625   62.412    3.350
  594 1  73.739   63.669    3.350
  595 1  73.708   66.128    3.350
  596 1  75.822   67.385    3.350
  597 1  75.790   69.844    3.350
  598 1  77.904   71.101    3.350
  599 1  77.873   73.561    3.350
  600 1  79.987   74.818    3.350
  601 1  79.955   77.277    3.350
  602 1  82.069   78.534    3.350
  603 1  82.038   80.993    3.350
  604 1  84.152   82.250    3.350
  605 1  40.451    1.749    3.350
  606 1  42.565    3.006    3.350
  607 1  42.533    5.465    3.350
  608 1  44.647    6.722    3.350
  609 1  44.616    9.181    3.350
  610 1  46.730   10.438    3.350
  611 1  46.698   12.898    3.350
  612 1  48.812   14.155    3.350
  613 1  48.781   16.614    3.350
  614 1  50.895   17.871    3.350
  615 1  50.863   20.330    3.350
  616 1  52.977   21.587    3.350
  617 1  52.946   24.047    3.350
  618 1  55.060   25.304    3.350
  619 1  55.028   27.763    3.350
  620 1  57.142   29.020    3.350
  621 1  57.111   31.479    3.350
  622 1  59.225   32.736    3.350
  623 1  59.193   35.195    3.350
  624 1  61.307   36.452    3.350
  625 1  61.276   38.912    3.350
  626 1  63.390   40.169    3.350
  627 1  63.358   42.628    3.350
  628 1  65.472   43.885    3.350
  629 1  65.441   46.344    3.350
  630 1  67.555   47.601    3.350
  631 1  67.523   50.061    3.350
  632 1  69.637   51.318    3.350
  633 1  69.606   53.777    3.350
  634 1  71.720   55.034    3.350
  635 1  71.688   57.493    3.350
  636 1  73.802   58.750    3.350
  637 1  73.771   61.209    3.350
  638 1  75.885   62.466    3.350
  639 1  75.853   64.926    3.350
  640 1  77.967   66.183    3.350
  641 1  77.936   68.642    3.350
  642 1  80.050   69.899    3.350
  643 1  80.018   72.358    3.350
  644 1  82.132   73.615    3.350
  645 1  82.101   76.075    3.350
  646 1  84.215   77.332    3.350
  647 1  84.183   79.791    3.350
  648 1  86.297   81.048    3.350
  649 1  42.596    0.547    3.350
  650 1  44.711    1.803    3.350
  651 1  44.679    4.263    3.350
  652 1  46.793    5.520    3.350
  653 1  46.761    7.979    3.350
  654 1  48.876    9.236    3.350
  655 1  48.844   11.695    3.350
  656 1  50.958   12.952    3.350
  657 1  50.926   15.412    3.350
  658 1  53.041   16.669    3.350
  659 1  53.009   19.128    3.350
  660 1  55.123   20.385    3.350
  661 1  55.091   22.844    3.350
  662 1  57.206   24.101    3.350
  663 1  57.174   26.561    3.350
  664 1  59.288   27.818    3.350
  665 1  59.256   30.277    3.350
  666 1  61.371   31.534    3.350
  667 1  61.339   33.993    3.350
  668 1  63.453   35.250    3.350
  669 1  63.421   37.709    3.350
  670 1  65.535   38.966    3.350
  671 1  65.504   41.426    3.350
  672 1  67.618   42.683    3.350
  673 1  67.586   45.142    3.350
  674 1  69.700   46.399    3.350
  675 1  69.669   48.858    3.350
  676 1  71.783   50.115    3.350
  677 1  71.751   52.575    3.350
  678 1  73.865   53.832    3.350
  679 1  73.834   56.291    3.350
  680 1  75.948   57.548    3.350
  681 1  75.916   60.007    3.350
  682 1  78.030   61.264    3.350
  683 1  77.999   63.723    3.350
  684 1  80.113   64.980    3.350
  685 1  80.081   67.440    3.350
  686 1  82.195   68.697    3.350
  687 1  82.164   71.156    3.350
  688 1  84.278   72.413    3.350
  689 1  84.246   74.872    3.350
  690 1  86.360   76.129    3.350
  691 1  86.329   78.589    3.350
  692 1  88.443   79.846    3.350
  693 1  88.411   82.305    3.350
  694 1  46.856    0.601    3.350
  695 1  46.825    3.060    3.350
  696 1  48.939    4.317    3.350
  697 1  48.907    6.777    3.350
  698 1  51.021    8.034    3.350
  699 1  50.990   10.493    3.350
  700 1  53.104   11.750    3.350
  701 1  53.072   14.209    3.350
  702 1  55.186   15.466    3.350
  703 1  55.155   17.926    3.350
  704 1  57.269   19.183    3.350
  705 1  57.237   21.642    3.350
  706 1  59.351   22.899    3.350
  707 1  59.320   25.358    3.350
  708 1  61.434   26.615    3.350
  709 1  61.402   29.075    3.350
  710 1  63.516   30.331    3.350
  711 1  63.485   32.791    3.350
  712 1  65.599   34.048    3.350
  713 1  65.567   36.507    3.350
  714 1  67.681   37.764    3.350
  715 1  67.650   40.223    3.350
  716 1  69.764   41.480    3.350
  717 1  69.732   43.940    3.350
  718 1  71.846   45.197    3.350
  719 1  71.815   47.656    3.350
  720 1  73.929   48.913    3.350
  721 1  73.897   51.372    3.350
  722 1  76.011   52.629    3.350
  723 1  75.980   55.089    3.350
  724 1  78.094   56.346    3.350
  725 1  78.062   58.805    3.350
  726 1  80.176   60.062    3.350
  727 1  80.145   62.521    3.350
  728 1  82.259   63.778    3.350
  729 1  82.227   66.237    3.350
  730 1  84.341   67.494    3.350
  731 1  84.310   69.954    3.350
  732 1  86.424   71.211    3.350
  733 1  86.392   73.670    3.350
  734 1  88.506   74.927    3.350
  735 1  88.474   77.386    3.350
  736 1  90.589   78.643    3.350
  737 1  90.557   81.103    3.350
  738 1  92.671   82.360    3.350
  739 1  48.970    1.858    3.350
  740 1  51.084    3.115    3.350
  741 1  51.053    5.574    3.350
  742 1  53.167    6.831    3.350
  743 1  53.135    9.291    3.350
  744 1  55.249   10.548    3.350
  745 1  55.218   13.007    3.350
  746 1  57.332   14.264    3.350
  747 1  57.300   16.723    3.350
  748 1  59.414   17.980    3.350
  749 1  59.383   20.440    3.350
  750 1  61.497   21.697    3.350
  751 1  61.465   24.156    3.350
  752 1  63.579   25.413    3.350
  753 1  63.548   27.872    3.350
  754 1  65.662   29.129    3.350
  755 1  65.630   31.588    3.350
  756 1  67.744   32.845    3.350
  757 1  67.713   35.305    3.350
  758 1  69.827   36.562    3.350
  759 1  69.795   39.021    3.350
  760 1  71.909   40.278    3.350
  761 1  71.878   42.737    3.350
  762 1  73.992   43.994    3.350
  763 1  73.960   46.454    3.350
  764 1  76.074   47.711    3.350
  765 1  76.043   50.170    3.350
  766 1  78.157   51.427    3.350
  767 1  78.125   53.886    3.350
  768 1  80.239   55.143    3.350
  769 1  80.208   57.602    3.350
  770 1  82.322   58.859    3.350
  771 1  82.290   61.319    3.350
  772 1  84.404   62.576    3.350
  773 1  84.373   65.035    3.350
  774 1  86.487   66.292    3.350
  775 1  86.455   68.751    3.350
  776 1  88.569   70.008    3.350
  777 1  88.538   72.468    3.350
  778 1  90.652   73.725    3.350
  779 1  90.620   76.184    3.350
  780 1  92.734   77.441    3.350
  781 1  92.703   79.900    3.350
  782 1  94.817   81.157    3.350
  783 1  51.116    0.656    3.350
  784 1  53.230    1.913    3.350
  785 1  53.198    4.372    3.350
  786 1  55.312    5.629    3.350
  787 1  55.281    8.088    3.350
  788 1  57.395    9.345    3.350
  789 1  57.363   11.805    3.350
  790 1  59.477   13.062    3.350
  791 1  59.446   15.521    3.350
  792 1  61.560   16.778    3.350
  793 1  61.528   19.237    3.350
  794 1  63.642   20.494    3.350
  795 1  63.611   22.954    3.350
  796 1  65.725   24.211    3.350
  797 1  65.693   26.670    3.350
  798 1  67.807   27.927    3.350
  799 1  67.776   30.386    3.350
  800 1  69.890   31.643    3.350
  801 1  69.858   34.102    3.350
  802 1  71.972   35.359    3.350
  803 1  71.941   37.819    3.350
  804 1  74.055   39.076    3.350
  805 1  74.023   41.535    3.350
  806 1  76.137   42.792    3.350
  807 1  76.106   45.251    3.350
  808 1  78.220   46.508    3.350
  809 1  78.188   48.968    3.350
  810 1  80.302   50.225    3.350
  811 1  80.271   52.684    3.350
  812 1  82.385   53.941    3.350
  813 1  82.353   56.400    3.350
  814 1  84.467   57.657    3.350
  815 1  84.436   60.116    3.350
  816 1  86.550   61.373    3.350
  817 1  86.518   63.833    3.350
  818 1  88.632   65.090    3.350
  819 1  88.601   67.549    3.350
  820 1  90.715   68.806    3.350
  821 1  90.683   71.265    3.350
  822 1  92.797   72.522    3.350
  823 1  92.766   74.982    3.350
  824 1  94.880   76.239    3.350
  825 1  94.848   78.698    3.350
  826 1  96.962   79.955    3.350
  827 1  96.931   82.414    3.350
  828 1  55.375    0.710    3.350
  829 1  55.344    3.170    3.350
  830 1  57.458    4.427    3.350
  831 1  57.426    6.886    3.350
  832 1  59.540    8.143    3.350
  833 1  59.509   10.602    3.350
  834 1  61.623   11.859    3.350
  835 1  61.591   14.319    3.350
  836 1  63.705   15.576    3.350
  837 1  63.674   18.035    3.350
  838 1  65.788   19.292    3.350
  839 1  65.756   21.751    3.350
  840 1  67.870   23.008    3.350
  841 1  67.839   25.468    3.350
  842 1  69.953   26.724    3.350
  843 1  69.921   29.184    3.350
  844 1  72.035   30.441    3.350
  845 1  72.004   32.900    3.350
  846 1  74.118   34.157    3.350
  847 1  74.086   36.616    3.350
  848 1  76.200   37.873    3.350
  849 1  76.169   40.333    3.350
  850 1  78.283   41.590    3.350
  851 1  78.251   44.049    3.350