#Lammps data file

  148 atoms
    2 atom types

  0.0000  14.9606 xlo xhi
  0.0000  12.9563 ylo yhi
-10.0000  13.3500 zlo zhi
  7.4803   0.0000   0.0000 xy xz yz 

Masses

 1 12
 2 12

Atoms

    1 1   0.000    0.000    3.350
    2 1   2.022    1.401    3.350
    3 1   3.841    5.253    3.350
    4 1   5.661    9.104    3.350
    5 1   4.246    0.350    3.350
    6 1   4.043    2.801    3.350
    7 1   6.065    4.202    3.350
    8 1   5.863    6.653    3.350
    9 1   7.885    8.054    3.350
   10 1   7.682   10.505    3.350
   11 1   9.704   11.906    3.350
   12 1   6.267    1.751    3.350
   13 1   8.289    3.152    3.350
   14 1   8.087    5.603    3.350
   15 1  10.109    7.003    3.350
   16 1   9.906    9.455    3.350
   17 1  11.928   10.855    3.350
   18 1   8.491    0.700    3.350
   19 1  10.513    2.101    3.350
   20 1  10.311    4.552    3.350
   21 1  12.332    5.953    3.350
   22 1  12.130    8.404    3.350
   23 1  14.152    9.805    3.350
   24 1  13.950   12.256    3.350
   25 1  12.737    1.051    3.350
   26 1  12.535    3.502    3.350
   27 1  14.556    4.902    3.350
   28 1  14.354    7.354    3.350
   29 1  16.376    8.754    3.350
   30 1  16.174   11.205    3.350
   31 1  18.195   12.606    3.350
   32 1  14.758    2.451    3.350
   33 1  16.780    3.852    3.350
   34 1  16.578    6.303    3.350
   35 1  18.600    7.704    3.350
   36 1  18.398   10.155    3.350
   37 1  20.419   11.556    3.350
   38 1   2.628    2.685    3.350
   39 1   4.448    6.537    3.350
   40 1   6.267   10.388    3.350
   41 1   2.830    0.233    3.350
   42 1   4.852    1.634    3.350
   43 1   4.650    4.085    3.350
   44 1   6.672    5.486    3.350
   45 1   6.469    7.937    3.350
   46 1   8.491    9.338    3.350
   47 1   8.289   11.789    3.350
   48 1   7.076    0.584    3.350
   49 1   6.874    3.035    3.350
   50 1   8.896    4.435    3.350
   51 1   8.693    6.887    3.350
   52 1  10.715    8.287    3.350
   53 1  10.513   10.739    3.350
   54 1  12.535   12.139    3.350
   55 1   9.098    1.984    3.350
   56 1  11.119    3.385    3.350
   57 1  10.917    5.836    3.350
   58 1  12.939    7.237    3.350
   59 1  12.737    9.688    3.350
   60 1  14.758   11.089    3.350
   61 1  11.322    0.934    3.350
   62 1  13.343    2.334    3.350
   63 1  13.141    4.786    3.350
   64 1  15.163    6.186    3.350
   65 1  14.961    8.638    3.350
   66 1  16.982   10.038    3.350
   67 1  16.780   12.489    3.350
   68 1  15.567    1.284    3.350
   69 1  15.365    3.735    3.350
   70 1  17.387    5.136    3.350
   71 1  17.185    7.587    3.350
   72 1  19.206    8.988    3.350
   73 1  19.004   11.439    3.350
   74 1  21.026   12.840    3.350
   75 2   0.000    0.000    0.000
   76 2   2.224    1.051    0.000
   77 2   2.426    3.502    0.000
   78 2   4.650    4.552    0.000
   79 2   4.852    7.003    0.000
   80 2   7.076    8.054    0.000
   81 2   7.278   10.505    0.000
   82 2   9.502   11.556    0.000
   83 2   4.448    2.101    0.000
   84 2   6.672    3.152    0.000
   85 2   6.874    5.603    0.000
   86 2   9.098    6.653    0.000
   87 2   9.300    9.104    0.000
   88 2  11.524   10.155    0.000
   89 2  11.726   12.606    0.000
   90 2   6.469    0.700    0.000
   91 2   8.693    1.751    0.000
   92 2   8.896    4.202    0.000
   93 2  11.119    5.253    0.000
   94 2  11.322    7.704    0.000
   95 2  13.545    8.754    0.000
   96 2  13.748   11.205    0.000
   97 2  15.971   12.256    0.000
   98 2  10.715    0.350    0.000
   99 2  10.917    2.801    0.000
  100 2  13.141    3.852    0.000
  101 2  13.343    6.303    0.000
  102 2  15.567    7.354    0.000
  103 2  15.769    9.805    0.000
  104 2  17.993   10.855    0.000
  105 2  12.939    1.401    0.000
  106 2  15.163    2.451    0.000
  107 2  15.365    4.902    0.000
  108 2  17.589    5.953    0.000
  109 2  17.791    8.404    0.000
  110 2  20.015    9.455    0.000
  111 2  20.217   11.906    0.000
  112 2   0.809    1.167    0.000
  113 2   3.033    2.218    0.000
  114 2   3.235    4.669    0.000
  115 2   5.459    5.719    0.000
  116 2   5.661    8.171    0.000
  117 2   7.885    9.221    0.000
  118 2   8.087   11.672    0.000
  119 2  10.311   12.723    0.000
  120 2   5.054    0.817    0.000
  121 2   5.256    3.268    0.000
  122 2   7.480    4.319    0.000
  123 2   7.682    6.770    0.000
  124 2   9.906    7.820    0.000
  125 2  10.109   10.272    0.000
  126 2  12.332   11.322    0.000
  127 2   7.278    1.868    0.000
  128 2   9.502    2.918    0.000
  129 2   9.704    5.369    0.000
  130 2  11.928    6.420    0.000
  131 2  12.130    8.871    0.000
  132 2  14.354    9.921    0.000
  133 2  14.556   12.373    0.000
  134 2   9.300    0.467    0.000
  135 2  11.524    1.517    0.000
  136 2  11.726    3.969    0.000
  137 2  13.950    5.019    0.000
  138 2  14.152    7.470    0.000
  139 2  16.376    8.521    0.000
  140 2  16.578   10.972    0.000
  141 2  18.802   12.022    0.000
  142 2  13.545    0.117    0.000
  143 2  13.748    2.568    0.000
  144 2  15.971    3.618    0.000
  145 2  16.174    6.070    0.000
  146 2  18.398    7.120    0.000
  147 2  18.600    9.571    0.000
  148 2  20.824   10.622    0.000
