#Lammps data file

  868 atoms
    2 atom types

  0.0000  36.2309 xlo xhi
  0.0000  31.3769 ylo yhi
-10.0000  13.3500 zlo zhi
 18.1154   0.0000   0.0000 xy xz yz 

Masses

 1 12
 2 12

Atoms

    1 1   0.000    0.000    3.350
    2 1   2.087    1.301    3.350
    3 1   4.091    5.061    3.350
    4 1   6.094    8.820    3.350
    5 1   8.098   12.580    3.350
    6 1  10.101   16.339    3.350
    7 1  12.105   20.099    3.350
    8 1  14.108   23.858    3.350
    9 1  16.112   27.617    3.350
   10 1   4.258    0.145    3.350
   11 1   4.174    2.603    3.350
   12 1   6.261    3.904    3.350
   13 1   6.178    6.362    3.350
   14 1   8.265    7.663    3.350
   15 1   8.181   10.122    3.350
   16 1  10.268   11.423    3.350
   17 1  10.185   13.881    3.350
   18 1  12.272   15.182    3.350
   19 1  12.188   17.640    3.350
   20 1  14.275   18.942    3.350
   21 1  14.192   21.400    3.350
   22 1  16.279   22.701    3.350
   23 1  16.195   25.159    3.350
   24 1  18.282   26.461    3.350
   25 1  18.199   28.919    3.350
   26 1  20.286   30.220    3.350
   27 1   6.345    1.446    3.350
   28 1   8.432    2.747    3.350
   29 1   8.348    5.205    3.350
   30 1  10.435    6.507    3.350
   31 1  10.352    8.965    3.350
   32 1  12.439   10.266    3.350
   33 1  12.355   12.724    3.350
   34 1  14.442   14.026    3.350
   35 1  14.359   16.484    3.350
   36 1  16.446   17.785    3.350
   37 1  16.362   20.243    3.350
   38 1  18.449   21.544    3.350
   39 1  18.366   24.003    3.350
   40 1  20.453   25.304    3.350
   41 1  20.369   27.762    3.350
   42 1  22.456   29.063    3.350
   43 1   8.515    0.289    3.350
   44 1  10.602    1.591    3.350
   45 1  10.519    4.049    3.350
   46 1  12.606    5.350    3.350
   47 1  12.522    7.808    3.350
   48 1  14.609    9.109    3.350
   49 1  14.526   11.568    3.350
   50 1  16.613   12.869    3.350
   51 1  16.529   15.327    3.350
   52 1  18.616   16.628    3.350
   53 1  18.533   19.086    3.350
   54 1  20.620   20.388    3.350
   55 1  20.536   22.846    3.350
   56 1  22.623   24.147    3.350
   57 1  22.540   26.605    3.350
   58 1  24.627   27.907    3.350
   59 1  24.543   30.365    3.350
   60 1  12.773    0.434    3.350
   61 1  12.689    2.892    3.350
   62 1  14.776    4.193    3.350
   63 1  14.693    6.651    3.350
   64 1  16.780    7.953    3.350
   65 1  16.696   10.411    3.350
   66 1  18.783   11.712    3.350
   67 1  18.700   14.170    3.350
   68 1  20.787   15.472    3.350
   69 1  20.703   17.930    3.350
   70 1  22.790   19.231    3.350
   71 1  22.707   21.689    3.350
   72 1  24.794   22.990    3.350
   73 1  24.710   25.449    3.350
   74 1  26.797   26.750    3.350
   75 1  26.714   29.208    3.350
   76 1  28.801   30.509    3.350
   77 1  14.860    1.735    3.350
   78 1  16.947    3.036    3.350
   79 1  16.863    5.495    3.350
   80 1  18.950    6.796    3.350
   81 1  18.867    9.254    3.350
   82 1  20.954   10.555    3.350
   83 1  20.870   13.013    3.350
   84 1  22.957   14.315    3.350
   85 1  22.874   16.773    3.350
   86 1  24.961   18.074    3.350
   87 1  24.877   20.532    3.350
   88 1  26.964   21.834    3.350
   89 1  26.881   24.292    3.350
   90 1  28.968   25.593    3.350
   91 1  28.885   28.051    3.350
   92 1  30.972   29.353    3.350
   93 1  17.030    0.578    3.350
   94 1  19.117    1.880    3.350
   95 1  19.034    4.338    3.350
   96 1  21.121    5.639    3.350
   97 1  21.037    8.097    3.350
   98 1  23.124    9.399    3.350
   99 1  23.041   11.857    3.350
  100 1  25.128   13.158    3.350
  101 1  25.044   15.616    3.350
  102 1  27.131   16.917    3.350
  103 1  27.048   19.376    3.350
  104 1  29.135   20.677    3.350
  105 1  29.051   23.135    3.350
  106 1  31.139   24.436    3.350
  107 1  31.055   26.894    3.350
  108 1  33.142   28.196    3.350
  109 1  33.059   30.654    3.350
  110 1  21.288    0.723    3.350
  111 1  21.204    3.181    3.350
  112 1  23.291    4.482    3.350
  113 1  23.208    6.941    3.350
  114 1  25.295    8.242    3.350
  115 1  25.211   10.700    3.350
  116 1  27.298   12.001    3.350
  117 1  27.215   14.459    3.350
  118 1  29.302   15.761    3.350
  119 1  29.218   18.219    3.350
  120 1  31.305   19.520    3.350
  121 1  31.222   21.978    3.350
  122 1  33.309   23.280    3.350
  123 1  33.226   25.738    3.350
  124 1  35.313   27.039    3.350
  125 1  35.229   29.497    3.350
  126 1  37.316   30.798    3.350
  127 1  23.375    2.024    3.350
  128 1  25.462    3.326    3.350
  129 1  25.378    5.784    3.350
  130 1  27.465    7.085    3.350
  131 1  27.382    9.543    3.350
  132 1  29.469   10.845    3.350
  133 1  29.385   13.303    3.350
  134 1  31.472   14.604    3.350
  135 1  31.389   17.062    3.350
  136 1  33.476   18.363    3.350
  137 1  33.393   20.822    3.350
  138 1  35.480   22.123    3.350
  139 1  35.396   24.581    3.350
  140 1  37.483   25.882    3.350
  141 1  37.400   28.340    3.350
  142 1  39.487   29.642    3.350
  143 1  25.545    0.868    3.350
  144 1  27.632    2.169    3.350
  145 1  27.549    4.627    3.350
  146 1  29.636    5.928    3.350
  147 1  29.552    8.386    3.350
  148 1  31.639    9.688    3.350
  149 1  31.556   12.146    3.350
  150 1  33.643   13.447    3.350
  151 1  33.559   15.905    3.350
  152 1  35.647   17.207    3.350
  153 1  35.563   19.665    3.350
  154 1  37.650   20.966    3.350
  155 1  37.567   23.424    3.350
  156 1  39.654   24.726    3.350
  157 1  39.570   27.184    3.350
  158 1  41.657   28.485    3.350
  159 1  41.574   30.943    3.350
  160 1  29.803    1.012    3.350
  161 1  29.719    3.470    3.350
  162 1  31.806    4.772    3.350
  163 1  31.723    7.230    3.350
  164 1  33.810    8.531    3.350
  165 1  33.726   10.989    3.350
  166 1  35.813   12.290    3.350
  167 1  35.730   14.749    3.350
  168 1  37.817   16.050    3.350
  169 1  37.734   18.508    3.350
  170 1  39.821   19.809    3.350
  171 1  39.737   22.267    3.350
  172 1  41.824   23.569    3.350
  173 1  41.741   26.027    3.350
  174 1  43.828   27.328    3.350
  175 1  43.744   29.786    3.350
  176 1  45.831   31.088    3.350
  177 1  31.890    2.314    3.350
  178 1  33.977    3.615    3.350
  179 1  33.893    6.073    3.350
  180 1  35.980    7.374    3.350
  181 1  35.897    9.832    3.350
  182 1  37.984   11.134    3.350
  183 1  37.901   13.592    3.350
  184 1  39.988   14.893    3.350
  185 1  39.904   17.351    3.350
  186 1  41.991   18.653    3.350
  187 1  41.908   21.111    3.350
  188 1  43.995   22.412    3.350
  189 1  43.911   24.870    3.350
  190 1  45.998   26.171    3.350
  191 1  45.915   28.630    3.350
  192 1  48.002   29.931    3.350
  193 1  34.060    1.157    3.350
  194 1  36.147    2.458    3.350
  195 1  36.064    4.916    3.350
  196 1  38.151    6.218    3.350
  197 1  38.067    8.676    3.350
  198 1  40.154    9.977    3.350
  199 1  40.071   12.435    3.350
  200 1  42.158   13.736    3.350
  201 1  42.075   16.195    3.350
  202 1  44.162   17.496    3.350
  203 1  44.078   19.954    3.350
  204 1  46.165   21.255    3.350
  205 1  46.082   23.713    3.350
  206 1  48.169   25.015    3.350
  207 1  48.085   27.473    3.350
  208 1  50.172   28.774    3.350
  209 1  50.089   31.232    3.350
  210 1  38.234    3.759    3.350
  211 1  40.238    7.519    3.350
  212 1  42.242   11.278    3.350
  213 1  44.245   15.038    3.350
  214 1  46.249   18.797    3.350
  215 1  48.252   22.557    3.350
  216 1  50.256   26.316    3.350
  217 1  52.259   30.076    3.350
  218 1   2.755    2.554    3.350
  219 1   4.758    6.314    3.350
  220 1   6.762   10.073    3.350
  221 1   8.766   13.833    3.350
  222 1  10.769   17.592    3.350
  223 1  12.773   21.352    3.350
  224 1  14.776   25.111    3.350
  225 1  16.780   28.871    3.350
  226 1   2.838    0.096    3.350
  227 1   4.925    1.398    3.350
  228 1   4.842    3.856    3.350
  229 1   6.929    5.157    3.350
  230 1   6.845    7.615    3.350
  231 1   8.932    8.917    3.350
  232 1   8.849   11.375    3.350
  233 1  10.936   12.676    3.350
  234 1  10.853   15.134    3.350
  235 1  12.940   16.435    3.350
  236 1  12.856   18.894    3.350
  237 1  14.943   20.195    3.350
  238 1  14.860   22.653    3.350
  239 1  16.947   23.954    3.350
  240 1  16.863   26.412    3.350
  241 1  18.950   27.714    3.350
  242 1  18.867   30.172    3.350
  243 1   7.096    0.241    3.350
  244 1   7.012    2.699    3.350
  245 1   9.099    4.000    3.350
  246 1   9.016    6.459    3.350
  247 1  11.103    7.760    3.350
  248 1  11.020   10.218    3.350
  249 1  13.107   11.519    3.350
  250 1  13.023   13.977    3.350
  251 1  15.110   15.279    3.350
  252 1  15.027   17.737    3.350
  253 1  17.114   19.038    3.350
  254 1  17.030   21.496    3.350
  255 1  19.117   22.798    3.350
  256 1  19.034   25.256    3.350
  257 1  21.121   26.557    3.350
  258 1  21.037   29.015    3.350
  259 1  23.124   30.317    3.350
  260 1   9.183    1.542    3.350
  261 1  11.270    2.844    3.350
  262 1  11.186    5.302    3.350
  263 1  13.274    6.603    3.350
  264 1  13.190    9.061    3.350
  265 1  15.277   10.363    3.350
  266 1  15.194   12.821    3.350
  267 1  17.281   14.122    3.350
  268 1  17.197   16.580    3.350
  269 1  19.284   17.881    3.350
  270 1  19.201   20.340    3.350
  271 1  21.288   21.641    3.350
  272 1  21.204   24.099    3.350
  273 1  23.291   25.400    3.350
  274 1  23.208   27.858    3.350
  275 1  25.295   29.160    3.350
  276 1  11.353    0.386    3.350
  277 1  13.440    1.687    3.350
  278 1  13.357    4.145    3.350
  279 1  15.444    5.446    3.350
  280 1  15.361    7.904    3.350
  281 1  17.448    9.206    3.350
  282 1  17.364   11.664    3.350
  283 1  19.451   12.965    3.350
  284 1  19.368   15.423    3.350
  285 1  21.455   16.725    3.350
  286 1  21.371   19.183    3.350
  287 1  23.458   20.484    3.350
  288 1  23.375   22.942    3.350
  289 1  25.462   24.244    3.350
  290 1  25.378   26.702    3.350
  291 1  27.465   28.003    3.350
  292 1  27.382   30.461    3.350
  293 1  15.611    0.530    3.350
  294 1  15.528    2.988    3.350
  295 1  17.615    4.290    3.350
  296 1  17.531    6.748    3.350
  297 1  19.618    8.049    3.350
  298 1  19.535   10.507    3.350
  299 1  21.622   11.808    3.350
  300 1  21.538   14.267    3.350
  301 1  23.625   15.568    3.350
  302 1  23.542   18.026    3.350
  303 1  25.629   19.327    3.350
  304 1  25.545   21.785    3.350
  305 1  27.632   23.087    3.350
  306 1  27.549   25.545    3.350
  307 1  29.636   26.846    3.350
  308 1  29.552   29.304    3.350
  309 1  31.639   30.606    3.350
  310 1  17.698    1.832    3.350
  311 1  19.785    3.133    3.350
  312 1  19.702    5.591    3.350
  313 1  21.789    6.892    3.350
  314 1  21.705    9.350    3.350
  315 1  23.792   10.652    3.350
  316 1  23.709   13.110    3.350
  317 1  25.796   14.411    3.350
  318 1  25.712   16.869    3.350
  319 1  27.799   18.171    3.350
  320 1  27.716   20.629    3.350
  321 1  29.803   21.930    3.350
  322 1  29.719   24.388    3.350
  323 1  31.806   25.690    3.350
  324 1  31.723   28.148    3.350
  325 1  33.810   29.449    3.350
  326 1  19.869    0.675    3.350
  327 1  21.956    1.976    3.350
  328 1  21.872    4.434    3.350
  329 1  23.959    5.736    3.350
  330 1  23.876    8.194    3.350
  331 1  25.963    9.495    3.350
  332 1  25.879   11.953    3.350
  333 1  27.966   13.254    3.350
  334 1  27.883   15.713    3.350
  335 1  29.970   17.014    3.350
  336 1  29.886   19.472    3.350
  337 1  31.973   20.773    3.350
  338 1  31.890   23.231    3.350
  339 1  33.977   24.533    3.350
  340 1  33.893   26.991    3.350
  341 1  35.980   28.292    3.350
  342 1  35.897   30.750    3.350
  343 1  24.126    0.819    3.350
  344 1  24.043    3.277    3.350
  345 1  26.130    4.579    3.350
  346 1  26.046    7.037    3.350
  347 1  28.133    8.338    3.350
  348 1  28.050   10.796    3.350
  349 1  30.137   12.098    3.350
  350 1  30.053   14.556    3.350
  351 1  32.140   15.857    3.350
  352 1  32.057   18.315    3.350
  353 1  34.144   19.617    3.350
  354 1  34.060   22.075    3.350
  355 1  36.147   23.376    3.350
  356 1  36.064   25.834    3.350
  357 1  38.151   27.135    3.350
  358 1  38.067   29.594    3.350
  359 1  40.154   30.895    3.350
  360 1  26.213    2.121    3.350
  361 1  28.300    3.422    3.350
  362 1  28.217    5.880    3.350
  363 1  30.304    7.181    3.350
  364 1  30.220    9.640    3.350
  365 1  32.307   10.941    3.350
  366 1  32.224   13.399    3.350
  367 1  34.311   14.700    3.350
  368 1  34.227   17.158    3.350
  369 1  36.314   18.460    3.350
  370 1  36.231   20.918    3.350
  371 1  38.318   22.219    3.350
  372 1  38.234   24.677    3.350
  373 1  40.321   25.979    3.350
  374 1  40.238   28.437    3.350
  375 1  42.325   29.738    3.350
  376 1  28.384    0.964    3.350
  377 1  30.471    2.265    3.350
  378 1  30.387    4.723    3.350
  379 1  32.474    6.025    3.350
  380 1  32.391    8.483    3.350
  381 1  34.478    9.784    3.350
  382 1  34.394   12.242    3.350
  383 1  36.481   13.544    3.350
  384 1  36.398   16.002    3.350
  385 1  38.485   17.303    3.350
  386 1  38.401   19.761    3.350
  387 1  40.488   21.063    3.350
  388 1  40.405   23.521    3.350
  389 1  42.492   24.822    3.350
  390 1  42.408   27.280    3.350
  391 1  44.496   28.581    3.350
  392 1  44.412   31.039    3.350
  393 1  32.641    1.109    3.350
  394 1  32.558    3.567    3.350
  395 1  34.645    4.868    3.350
  396 1  34.561    7.326    3.350
  397 1  36.648    8.627    3.350
  398 1  36.565   11.086    3.350
  399 1  38.652   12.387    3.350
  400 1  38.568   14.845    3.350
  401 1  40.655   16.146    3.350
  402 1  40.572   18.604    3.350
  403 1  42.659   19.906    3.350
  404 1  42.575   22.364    3.350
  405 1  44.662   23.665    3.350
  406 1  44.579   26.123    3.350
  407 1  46.666   27.425    3.350
  408 1  46.583   29.883    3.350
  409 1  48.670   31.184    3.350
  410 1  34.728    2.410    3.350
  411 1  36.815    3.711    3.350
  412 1  36.732    6.169    3.350
  413 1  38.819    7.471    3.350
  414 1  38.735    9.929    3.350
  415 1  40.822   11.230    3.350
  416 1  40.739   13.688    3.350
  417 1  42.826   14.990    3.350
  418 1  42.742   17.448    3.350
  419 1  44.829   18.749    3.350
  420 1  44.746   21.207    3.350
  421 1  46.833   22.508    3.350
  422 1  46.750   24.967    3.350
  423 1  48.837   26.268    3.350
  424 1  48.753   28.726    3.350
  425 1  50.840   30.027    3.350
  426 1  36.899    1.253    3.350
  427 1  38.902    5.013    3.350
  428 1  40.906    8.772    3.350
  429 1  42.909   12.531    3.350
  430 1  44.913   16.291    3.350
  431 1  46.916   20.050    3.350
  432 1  48.920   23.810    3.350
  433 1  50.924   27.569    3.350
  434 1  52.927   31.329    3.350
  435 2   0.000    0.000    0.000
  436 2   2.171    1.157    0.000
  437 2   2.254    3.615    0.000
  438 2   4.425    4.772    0.000
  439 2   4.508    7.230    0.000
  440 2   6.679    8.386    0.000
  441 2   6.762   10.845    0.000
  442 2   8.932   12.001    0.000
  443 2   9.016   14.459    0.000
  444 2  11.186   15.616    0.000
  445 2  11.270   18.074    0.000
  446 2  13.440   19.231    0.000
  447 2  13.524   21.689    0.000
  448 2  15.694   22.846    0.000
  449 2  15.778   25.304    0.000
  450 2  17.948   26.461    0.000
  451 2  18.032   28.919    0.000
  452 2  20.202   30.076    0.000
  453 2   4.341    2.314    0.000
  454 2   6.512    3.470    0.000
  455 2   6.595    5.928    0.000
  456 2   8.766    7.085    0.000
  457 2   8.849    9.543    0.000
  458 2  11.020   10.700    0.000
  459 2  11.103   13.158    0.000
  460 2  13.274   14.315    0.000
  461 2  13.357   16.773    0.000
  462 2  15.528   17.930    0.000
  463 2  15.611   20.388    0.000
  464 2  17.782   21.544    0.000
  465 2  17.865   24.003    0.000
  466 2  20.036   25.159    0.000
  467 2  20.119   27.617    0.000
  468 2  22.290   28.774    0.000
  469 2  22.373   31.232    0.000
  470 2   6.428    1.012    0.000
  471 2   8.599    2.169    0.000
  472 2   8.682    4.627    0.000
  473 2  10.853    5.784    0.000
  474 2  10.936    8.242    0.000
  475 2  13.107    9.399    0.000
  476 2  13.190   11.857    0.000
  477 2  15.361   13.013    0.000
  478 2  15.444   15.472    0.000
  479 2  17.615   16.628    0.000
  480 2  17.698   19.086    0.000
  481 2  19.869   20.243    0.000
  482 2  19.952   22.701    0.000
  483 2  22.123   23.858    0.000
  484 2  22.206   26.316    0.000
  485 2  24.377   27.473    0.000
  486 2  24.460   29.931    0.000
  487 2  26.631   31.088    0.000
  488 2  10.686    0.868    0.000
  489 2  10.769    3.326    0.000
  490 2  12.940    4.482    0.000
  491 2  13.023    6.941    0.000
  492 2  15.194    8.097    0.000
  493 2  15.277   10.555    0.000
  494 2  17.448   11.712    0.000
  495 2  17.531   14.170    0.000
  496 2  19.702   15.327    0.000
  497 2  19.785   17.785    0.000
  498 2  21.956   18.942    0.000
  499 2  22.039   21.400    0.000
  500 2  24.210   22.557    0.000
  501 2  24.293   25.015    0.000
  502 2  26.464   26.171    0.000
  503 2  26.547   28.630    0.000
  504 2  28.718   29.786    0.000
  505 2  12.856    2.024    0.000
  506 2  15.027    3.181    0.000
  507 2  15.110    5.639    0.000
  508 2  17.281    6.796    0.000
  509 2  17.364    9.254    0.000
  510 2  19.535   10.411    0.000
  511 2  19.618   12.869    0.000
  512 2  21.789   14.026    0.000
  513 2  21.872   16.484    0.000
  514 2  24.043   17.640    0.000
  515 2  24.126   20.099    0.000
  516 2  26.297   21.255    0.000
  517 2  26.380   23.713    0.000
  518 2  28.551   24.870    0.000
  519 2  28.634   27.328    0.000
  520 2  30.805   28.485    0.000
  521 2  30.888   30.943    0.000
  522 2  14.943    0.723    0.000
  523 2  17.114    1.880    0.000
  524 2  17.197    4.338    0.000
  525 2  19.368    5.495    0.000
  526 2  19.451    7.953    0.000
  527 2  21.622    9.109    0.000
  528 2  21.705   11.568    0.000
  529 2  23.876   12.724    0.000
  530 2  23.959   15.182    0.000
  531 2  26.130   16.339    0.000
  532 2  26.213   18.797    0.000
  533 2  28.384   19.954    0.000
  534 2  28.467   22.412    0.000
  535 2  30.638   23.569    0.000
  536 2  30.721   26.027    0.000
  537 2  32.892   27.184    0.000
  538 2  32.975   29.642    0.000
  539 2  35.146   30.798    0.000
  540 2  19.201    0.578    0.000
  541 2  19.284    3.036    0.000
  542 2  21.455    4.193    0.000
  543 2  21.538    6.651    0.000
  544 2  23.709    7.808    0.000
  545 2  23.792   10.266    0.000
  546 2  25.963   11.423    0.000
  547 2  26.046   13.881    0.000
  548 2  28.217   15.038    0.000
  549 2  28.300   17.496    0.000
  550 2  30.471   18.653    0.000
  551 2  30.554   21.111    0.000
  552 2  32.725   22.267    0.000
  553 2  32.808   24.726    0.000
  554 2  34.979   25.882    0.000
  555 2  35.062   28.340    0.000
  556 2  37.233   29.497    0.000
  557 2  21.371    1.735    0.000
  558 2  23.542    2.892    0.000
  559 2  23.625    5.350    0.000
  560 2  25.796    6.507    0.000
  561 2  25.879    8.965    0.000
  562 2  28.050   10.122    0.000
  563 2  28.133   12.580    0.000
  564 2  30.304   13.736    0.000
  565 2  30.387   16.195    0.000
  566 2  32.558   17.351    0.000
  567 2  32.641   19.809    0.000
  568 2  34.812   20.966    0.000
  569 2  34.895   23.424    0.000
  570 2  37.066   24.581    0.000
  571 2  37.149   27.039    0.000
  572 2  39.320   28.196    0.000
  573 2  39.403   30.654    0.000
  574 2  23.458    0.434    0.000
  575 2  25.629    1.591    0.000
  576 2  25.712    4.049    0.000
  577 2  27.883    5.205    0.000
  578 2  27.966    7.663    0.000
  579 2  30.137    8.820    0.000
  580 2  30.220   11.278    0.000
  581 2  32.391   12.435    0.000
  582 2  32.474   14.893    0.000
  583 2  34.645   16.050    0.000
  584 2  34.728   18.508    0.000
  585 2  36.899   19.665    0.000
  586 2  36.982   22.123    0.000
  587 2  39.153   23.280    0.000
  588 2  39.236   25.738    0.000
  589 2  41.407   26.894    0.000
  590 2  41.490   29.353    0.000
  591 2  43.661   30.509    0.000
  592 2  27.716    0.289    0.000
  593 2  27.799    2.747    0.000
  594 2  29.970    3.904    0.000
  595 2  30.053    6.362    0.000
  596 2  32.224    7.519    0.000
  597 2  32.307    9.977    0.000
  598 2  34.478   11.134    0.000
  599 2  34.561   13.592    0.000
  600 2  36.732   14.749    0.000
  601 2  36.815   17.207    0.000
  602 2  38.986   18.363    0.000
  603 2  39.069   20.822    0.000
  604 2  41.240   21.978    0.000
  605 2  41.323   24.436    0.000
  606 2  43.494   25.593    0.000
  607 2  43.577   28.051    0.000
  608 2  45.748   29.208    0.000
  609 2  29.886    1.446    0.000
  610 2  32.057    2.603    0.000
  611 2  32.140    5.061    0.000
  612 2  34.311    6.218    0.000
  613 2  34.394    8.676    0.000
  614 2  36.565    9.832    0.000
  615 2  36.648   12.290    0.000
  616 2  38.819   13.447    0.000
  617 2  38.902   15.905    0.000
  618 2  41.073   17.062    0.000
  619 2  41.156   19.520    0.000
  620 2  43.327   20.677    0.000
  621 2  43.410   23.135    0.000
  622 2  45.581   24.292    0.000
  623 2  45.664   26.750    0.000
  624 2  47.835   27.907    0.000
  625 2  47.918   30.365    0.000
  626 2  31.973    0.145    0.000
  627 2  34.144    1.301    0.000
  628 2  34.227    3.759    0.000
  629 2  36.398    4.916    0.000
  630 2  36.481    7.374    0.000
  631 2  38.652    8.531    0.000
  632 2  38.735   10.989    0.000
  633 2  40.906   12.146    0.000
  634 2  40.989   14.604    0.000
  635 2  43.160   15.761    0.000
  636 2  43.243   18.219    0.000
  637 2  45.414   19.376    0.000
  638 2  45.497   21.834    0.000
  639 2  47.668   22.990    0.000
  640 2  47.751   25.449    0.000
  641 2  49.922   26.605    0.000
  642 2  50.005   29.063    0.000
  643 2  52.176   30.220    0.000
  644 2  36.314    2.458    0.000
  645 2  38.568    6.073    0.000
  646 2  40.822    9.688    0.000
  647 2  43.076   13.303    0.000
  648 2  45.330   16.917    0.000
  649 2  47.584   20.532    0.000
  650 2  49.838   24.147    0.000
  651 2  52.092   27.762    0.000
  652 2   0.751    1.205    0.000
  653 2   2.922    2.362    0.000
  654 2   3.005    4.820    0.000
  655 2   5.176    5.977    0.000
  656 2   5.259    8.435    0.000
  657 2   7.430    9.591    0.000
  658 2   7.513   12.049    0.000
  659 2   9.684   13.206    0.000
  660 2   9.767   15.664    0.000
  661 2  11.938   16.821    0.000
  662 2  12.021   19.279    0.000
  663 2  14.192   20.436    0.000
  664 2  14.275   22.894    0.000
  665 2  16.446   24.051    0.000
  666 2  16.529   26.509    0.000
  667 2  18.700   27.666    0.000
  668 2  18.783   30.124    0.000
  669 2  20.954   31.280    0.000
  670 2   5.009    1.060    0.000
  671 2   5.092    3.518    0.000
  672 2   7.263    4.675    0.000
  673 2   7.346    7.133    0.000
  674 2   9.517    8.290    0.000
  675 2   9.600   10.748    0.000
  676 2  11.771   11.905    0.000
  677 2  11.854   14.363    0.000
  678 2  14.025   15.520    0.000
  679 2  14.108   17.978    0.000
  680 2  16.279   19.135    0.000
  681 2  16.362   21.593    0.000
  682 2  18.533   22.749    0.000
  683 2  18.616   25.208    0.000
  684 2  20.787   26.364    0.000
  685 2  20.870   28.822    0.000
  686 2  23.041   29.979    0.000
  687 2   7.179    2.217    0.000
  688 2   9.350    3.374    0.000
  689 2   9.433    5.832    0.000
  690 2  11.604    6.989    0.000
  691 2  11.687    9.447    0.000
  692 2  13.858   10.604    0.000
  693 2  13.941   13.062    0.000
  694 2  16.112   14.218    0.000
  695 2  16.195   16.676    0.000
  696 2  18.366   17.833    0.000
  697 2  18.449   20.291    0.000
  698 2  20.620   21.448    0.000
  699 2  20.703   23.906    0.000
  700 2  22.874   25.063    0.000
  701 2  22.957   27.521    0.000
  702 2  25.128   28.678    0.000
  703 2  25.211   31.136    0.000
  704 2   9.266    0.916    0.000
  705 2  11.437    2.073    0.000
  706 2  11.520    4.531    0.000
  707 2  13.691    5.687    0.000
  708 2  13.774    8.145    0.000
  709 2  15.945    9.302    0.000
  710 2  16.028   11.760    0.000
  711 2  18.199   12.917    0.000
  712 2  18.282   15.375    0.000
  713 2  20.453   16.532    0.000
  714 2  20.536   18.990    0.000
  715 2  22.707   20.147    0.000
  716 2  22.790   22.605    0.000
  717 2  24.961   23.762    0.000
  718 2  25.044   26.220    0.000
  719 2  27.215   27.376    0.000
  720 2  27.298   29.835    0.000
  721 2  29.469   30.991    0.000
  722 2  13.524    0.771    0.000
  723 2  13.607    3.229    0.000
  724 2  15.778    4.386    0.000
  725 2  15.861    6.844    0.000
  726 2  18.032    8.001    0.000
  727 2  18.115   10.459    0.000
  728 2  20.286   11.616    0.000
  729 2  20.369   14.074    0.000
  730 2  22.540   15.231    0.000
  731 2  22.623   17.689    0.000
  732 2  24.794   18.845    0.000
  733 2  24.877   21.303    0.000
  734 2  27.048   22.460    0.000
  735 2  27.131   24.918    0.000
  736 2  29.302   26.075    0.000
  737 2  29.385   28.533    0.000
  738 2  31.556   29.690    0.000
  739 2  15.694    1.928    0.000
  740 2  17.865    3.085    0.000
  741 2  17.948    5.543    0.000
  742 2  20.119    6.700    0.000
  743 2  20.202    9.158    0.000
  744 2  22.373   10.314    0.000
  745 2  22.456   12.772    0.000
  746 2  24.627   13.929    0.000
  747 2  24.710   16.387    0.000
  748 2  26.881   17.544    0.000
  749 2  26.964   20.002    0.000
  750 2  29.135   21.159    0.000
  751 2  29.218   23.617    0.000
  752 2  31.389   24.774    0.000
  753 2  31.472   27.232    0.000
  754 2  33.643   28.389    0.000
  755 2  33.726   30.847    0.000
  756 2  17.782    0.627    0.000
  757 2  19.952    1.783    0.000
  758 2  20.036    4.241    0.000
  759 2  22.206    5.398    0.000
  760 2  22.290    7.856    0.000
  761 2  24.460    9.013    0.000
  762 2  24.543   11.471    0.000
  763 2  26.714   12.628    0.000
  764 2  26.797   15.086    0.000
  765 2  28.968   16.243    0.000
  766 2  29.051   18.701    0.000
  767 2  31.222   19.858    0.000
  768 2  31.305   22.316    0.000
  769 2  33.476   23.472    0.000
  770 2  33.559   25.930    0.000
  771 2  35.730   27.087    0.000
  772 2  35.813   29.545    0.000
  773 2  37.984   30.702    0.000
  774 2  22.039    0.482    0.000
  775 2  22.123    2.940    0.000
  776 2  24.293    4.097    0.000
  777 2  24.377    6.555    0.000
  778 2  26.547    7.712    0.000
  779 2  26.631   10.170    0.000
  780 2  28.801   11.327    0.000
  781 2  28.885   13.785    0.000
  782 2  31.055   14.941    0.000
  783 2  31.139   17.399    0.000
  784 2  33.309   18.556    0.000
  785 2  33.393   21.014    0.000
  786 2  35.563   22.171    0.000
  787 2  35.647   24.629    0.000
  788 2  37.817   25.786    0.000
  789 2  37.901   28.244    0.000
  790 2  40.071   29.401    0.000
  791 2  24.210    1.639    0.000
  792 2  26.380    2.795    0.000
  793 2  26.464    5.254    0.000
  794 2  28.634    6.410    0.000
  795 2  28.718    8.868    0.000
  796 2  30.888   10.025    0.000
  797 2  30.972   12.483    0.000
  798 2  33.142   13.640    0.000
  799 2  33.226   16.098    0.000
  800 2  35.396   17.255    0.000
  801 2  35.480   19.713    0.000
  802 2  37.650   20.870    0.000
  803 2  37.734   23.328    0.000
  804 2  39.904   24.485    0.000
  805 2  39.988   26.943    0.000
  806 2  42.158   28.099    0.000
  807 2  42.242   30.557    0.000
  808 2  26.297    0.337    0.000
  809 2  28.467    1.494    0.000
  810 2  28.551    3.952    0.000
  811 2  30.721    5.109    0.000
  812 2  30.805    7.567    0.000
  813 2  32.975    8.724    0.000
  814 2  33.059   11.182    0.000
  815 2  35.229   12.339    0.000
  816 2  35.313   14.797    0.000
  817 2  37.483   15.954    0.000
  818 2  37.567   18.412    0.000
  819 2  39.737   19.568    0.000
  820 2  39.821   22.026    0.000
  821 2  41.991   23.183    0.000
  822 2  42.075   25.641    0.000
  823 2  44.245   26.798    0.000
  824 2  44.329   29.256    0.000
  825 2  46.499   30.413    0.000
  826 2  30.554    0.193    0.000
  827 2  30.638    2.651    0.000
  828 2  32.808    3.808    0.000
  829 2  32.892    6.266    0.000
  830 2  35.062    7.422    0.000
  831 2  35.146    9.881    0.000
  832 2  37.316   11.037    0.000
  833 2  37.400   13.495    0.000
  834 2  39.570   14.652    0.000
  835 2  39.654   17.110    0.000
  836 2  41.824   18.267    0.000
  837 2  41.908   20.725    0.000
  838 2  44.078   21.882    0.000
  839 2  44.162   24.340    0.000
  840 2  46.332   25.497    0.000
  841 2  46.416   27.955    0.000
  842 2  48.586   29.112    0.000
  843 2  32.725    1.350    0.000
  844 2  34.895    2.506    0.000
  845 2  34.979    4.964    0.000
  846 2  37.149    6.121    0.000
  847 2  37.233    8.579    0.000
  848 2  39.403    9.736    0.000
  849 2  39.487   12.194    0.000
  850 2  41.657   13.351    0.000
  851 2  41.741   15.809    0.000